n -t 0 -s 0 -S DLABEL -l "src1" -L ""
n -t 0 -s 2 -S DLABEL -l "src2" -L ""
n -t 0 -s 3 -S DLABEL -l "dest2" -L ""
n -t 0 -s 5 -S DLABEL -l "dest1" -L ""
V -t * -v 1.0a5 -a 0
A -t * -n 1 -p 0 -o 0x7fffffff -c 30 -a 1
A -t * -h 1 -m 1073741823 -s 0
n -t * -a 4 -s 4 -S UP -v box -c black -i black
n -t * -a 0 -s 0 -S UP -v circle -c green -i green
n -t * -a 5 -s 5 -S UP -v circle -c blue -i blue
n -t * -a 1 -s 1 -S UP -v circle -c magenta -i magenta
n -t * -a 2 -s 2 -S UP -v circle -c green -i green
n -t * -a 3 -s 3 -S UP -v circle -c blue -i blue
l -t * -s 4 -d 5 -S UP -r 1000000 -D 0.001 -c black -o right
X -t * -n 6 -r 50Mb -D 100ms -o left
L -t * -s 6 -d 0 -o up
L -t * -s 6 -d 1 -o down
L -t * -s 6 -d 2 -o up
L -t * -s 6 -d 3 -o down
L -t * -s 6 -d 4 -o up
L -t * -s 6 -d 5 -o down
h -t 0.1 -s 0 -d 6 -p tcp -e 40 -c 0 -i 0 -a 0 -x {0.0 5.0 0 ------- null}
h -t 0.2 -s 2 -d 6 -p tcp -e 40 -c 0 -i 1 -a 0 -x {2.0 3.0 0 ------- null}
+ -t 0.2 -s 0 -d 6 -p tcp -e 40 -c 0 -i 0 -a 0 -x {0.0 5.0 0 ------- null}
- -t 0.2 -s 0 -d 6 -p tcp -e 40 -c 0 -i 0 -a 0 -x {0.0 5.0 0 ------- null}
h -t 0.2 -s 0 -d 6 -p tcp -e 40 -c 0 -i 0 -a 0 -x {0.0 5.0 -1 ------- null}
+ -t 0.3 -s 2 -d 6 -p tcp -e 40 -c 0 -i 1 -a 0 -x {2.0 3.0 0 ------- null}
- -t 0.3 -s 2 -d 6 -p tcp -e 40 -c 0 -i 1 -a 0 -x {2.0 3.0 0 ------- null}
h -t 0.3 -s 2 -d 6 -p tcp -e 40 -c 0 -i 1 -a 0 -x {2.0 3.0 -1 ------- null}
r -t 0.30001424 -s 6 -d 5 -p tcp -e 40 -c 0 -i 0 -a 0 -x {0.0 5.0 0 ------- null}
h -t 0.30001424 -s 5 -d 6 -p ack -e 40 -c 0 -i 2 -a 0 -x {5.0 0.0 0 ------- null}
+ -t 0.40001424 -s 5 -d 6 -p ack -e 40 -c 0 -i 2 -a 0 -x {5.0 0.0 0 ------- null}
- -t 0.40001424 -s 5 -d 6 -p ack -e 40 -c 0 -i 2 -a 0 -x {5.0 0.0 0 ------- null}
h -t 0.40001424 -s 5 -d 6 -p ack -e 40 -c 0 -i 2 -a 0 -x {5.0 0.0 -1 ------- null}
r -t 0.40001424 -s 6 -d 3 -p tcp -e 40 -c 0 -i 1 -a 0 -x {2.0 3.0 0 ------- null}
h -t 0.40001424 -s 3 -d 6 -p ack -e 40 -c 0 -i 3 -a 0 -x {3.0 2.0 0 ------- null}
+ -t 0.50001424 -s 3 -d 6 -p ack -e 40 -c 0 -i 3 -a 0 -x {3.0 2.0 0 ------- null}
- -t 0.50001424 -s 3 -d 6 -p ack -e 40 -c 0 -i 3 -a 0 -x {3.0 2.0 0 ------- null}
h -t 0.50001424 -s 3 -d 6 -p ack -e 40 -c 0 -i 3 -a 0 -x {3.0 2.0 -1 ------- null}
r -t 0.50002848 -s 6 -d 0 -p ack -e 40 -c 0 -i 2 -a 0 -x {5.0 0.0 0 ------- null}
h -t 0.50002848 -s 0 -d 6 -p tcp -e 1040 -c 0 -i 4 -a 0 -x {0.0 5.0 1 ------- null}
h -t 0.50002848 -s 0 -d 6 -p tcp -e 1040 -c 0 -i 5 -a 0 -x {0.0 5.0 2 ------- null}
+ -t 0.60002848 -s 0 -d 6 -p tcp -e 1040 -c 0 -i 4 -a 0 -x {0.0 5.0 1 ------- null}
- -t 0.60002848 -s 0 -d 6 -p tcp -e 1040 -c 0 -i 4 -a 0 -x {0.0 5.0 1 ------- null}
h -t 0.60002848 -s 0 -d 6 -p tcp -e 1040 -c 0 -i 4 -a 0 -x {0.0 5.0 -1 ------- null}
+ -t 0.60002848 -s 0 -d 6 -p tcp -e 1040 -c 0 -i 5 -a 0 -x {0.0 5.0 2 ------- null}
r -t 0.60002848 -s 6 -d 2 -p ack -e 40 -c 0 -i 3 -a 0 -x {3.0 2.0 0 ------- null}
h -t 0.60002848 -s 2 -d 6 -p tcp -e 1040 -c 0 -i 6 -a 0 -x {2.0 3.0 1 ------- null}
h -t 0.60002848 -s 2 -d 6 -p tcp -e 1040 -c 0 -i 7 -a 0 -x {2.0 3.0 2 ------- null}
- -t 0.60019904 -s 0 -d 6 -p tcp -e 1040 -c 0 -i 5 -a 0 -x {0.0 5.0 2 ------- null}
h -t 0.60019904 -s 0 -d 6 -p tcp -e 1040 -c 0 -i 5 -a 0 -x {0.0 5.0 -1 ------- null}
+ -t 0.70002848 -s 2 -d 6 -p tcp -e 1040 -c 0 -i 6 -a 0 -x {2.0 3.0 1 ------- null}
- -t 0.70002848 -s 2 -d 6 -p tcp -e 1040 -c 0 -i 6 -a 0 -x {2.0 3.0 1 ------- null}
h -t 0.70002848 -s 2 -d 6 -p tcp -e 1040 -c 0 -i 6 -a 0 -x {2.0 3.0 -1 ------- null}
+ -t 0.70002848 -s 2 -d 6 -p tcp -e 1040 -c 0 -i 7 -a 0 -x {2.0 3.0 2 ------- null}
- -t 0.70019904 -s 2 -d 6 -p tcp -e 1040 -c 0 -i 7 -a 0 -x {2.0 3.0 2 ------- null}
h -t 0.70019904 -s 2 -d 6 -p tcp -e 1040 -c 0 -i 7 -a 0 -x {2.0 3.0 -1 ------- null}
r -t 0.70020112 -s 6 -d 5 -p tcp -e 1040 -c 0 -i 4 -a 0 -x {0.0 5.0 1 ------- null}
h -t 0.70020112 -s 5 -d 6 -p ack -e 40 -c 0 -i 8 -a 0 -x {5.0 0.0 1 ------- null}
r -t 0.70037168 -s 6 -d 5 -p tcp -e 1040 -c 0 -i 5 -a 0 -x {0.0 5.0 2 ------- null}
h -t 0.70037168 -s 5 -d 6 -p ack -e 40 -c 0 -i 9 -a 0 -x {5.0 0.0 2 ------- null}
+ -t 0.80020112 -s 5 -d 6 -p ack -e 40 -c 0 -i 8 -a 0 -x {5.0 0.0 1 ------- null}
- -t 0.80020112 -s 5 -d 6 -p ack -e 40 -c 0 -i 8 -a 0 -x {5.0 0.0 1 ------- null}
h -t 0.80020112 -s 5 -d 6 -p ack -e 40 -c 0 -i 8 -a 0 -x {5.0 0.0 -1 ------- null}
r -t 0.80020112 -s 6 -d 3 -p tcp -e 1040 -c 0 -i 6 -a 0 -x {2.0 3.0 1 ------- null}
h -t 0.80020112 -s 3 -d 6 -p ack -e 40 -c 0 -i 10 -a 0 -x {3.0 2.0 1 ------- null}
+ -t 0.80037168 -s 5 -d 6 -p ack -e 40 -c 0 -i 9 -a 0 -x {5.0 0.0 2 ------- null}
- -t 0.80037168 -s 5 -d 6 -p ack -e 40 -c 0 -i 9 -a 0 -x {5.0 0.0 2 ------- null}
h -t 0.80037168 -s 5 -d 6 -p ack -e 40 -c 0 -i 9 -a 0 -x {5.0 0.0 -1 ------- null}
r -t 0.80037168 -s 6 -d 3 -p tcp -e 1040 -c 0 -i 7 -a 0 -x {2.0 3.0 2 ------- null}
h -t 0.80037168 -s 3 -d 6 -p ack -e 40 -c 0 -i 11 -a 0 -x {3.0 2.0 2 ------- null}
+ -t 0.90020112 -s 3 -d 6 -p ack -e 40 -c 0 -i 10 -a 0 -x {3.0 2.0 1 ------- null}
- -t 0.90020112 -s 3 -d 6 -p ack -e 40 -c 0 -i 10 -a 0 -x {3.0 2.0 1 ------- null}
h -t 0.90020112 -s 3 -d 6 -p ack -e 40 -c 0 -i 10 -a 0 -x {3.0 2.0 -1 ------- null}
r -t 0.90021536 -s 6 -d 0 -p ack -e 40 -c 0 -i 8 -a 0 -x {5.0 0.0 1 ------- null}
h -t 0.90021536 -s 0 -d 6 -p tcp -e 1040 -c 0 -i 12 -a 0 -x {0.0 5.0 3 ------- null}
h -t 0.90021536 -s 0 -d 6 -p tcp -e 1040 -c 0 -i 13 -a 0 -x {0.0 5.0 4 ------- null}
+ -t 0.90037168 -s 3 -d 6 -p ack -e 40 -c 0 -i 11 -a 0 -x {3.0 2.0 2 ------- null}
- -t 0.90037168 -s 3 -d 6 -p ack -e 40 -c 0 -i 11 -a 0 -x {3.0 2.0 2 ------- null}
h -t 0.90037168 -s 3 -d 6 -p ack -e 40 -c 0 -i 11 -a 0 -x {3.0 2.0 -1 ------- null}
r -t 0.90038592 -s 6 -d 0 -p ack -e 40 -c 0 -i 9 -a 0 -x {5.0 0.0 2 ------- null}
h -t 0.90038592 -s 0 -d 6 -p tcp -e 1040 -c 0 -i 14 -a 0 -x {0.0 5.0 5 ------- null}
h -t 0.90038592 -s 0 -d 6 -p tcp -e 1040 -c 0 -i 15 -a 0 -x {0.0 5.0 6 ------- null}
+ -t 1.00021536 -s 0 -d 6 -p tcp -e 1040 -c 0 -i 12 -a 0 -x {0.0 5.0 3 ------- null}
- -t 1.00021536 -s 0 -d 6 -p tcp -e 1040 -c 0 -i 12 -a 0 -x {0.0 5.0 3 ------- null}
h -t 1.00021536 -s 0 -d 6 -p tcp -e 1040 -c 0 -i 12 -a 0 -x {0.0 5.0 -1 ------- null}
+ -t 1.00021536 -s 0 -d 6 -p tcp -e 1040 -c 0 -i 13 -a 0 -x {0.0 5.0 4 ------- null}
r -t 1.00021536 -s 6 -d 2 -p ack -e 40 -c 0 -i 10 -a 0 -x {3.0 2.0 1 ------- null}
h -t 1.00021536 -s 2 -d 6 -p tcp -e 1040 -c 0 -i 16 -a 0 -x {2.0 3.0 3 ------- null}
h -t 1.00021536 -s 2 -d 6 -p tcp -e 1040 -c 0 -i 17 -a 0 -x {2.0 3.0 4 ------- null}
+ -t 1.00038592 -s 0 -d 6 -p tcp -e 1040 -c 0 -i 14 -a 0 -x {0.0 5.0 5 ------- null}
+ -t 1.00038592 -s 0 -d 6 -p tcp -e 1040 -c 0 -i 15 -a 0 -x {0.0 5.0 6 ------- null}
r -t 1.00038592 -s 6 -d 2 -p ack -e 40 -c 0 -i 11 -a 0 -x {3.0 2.0 2 ------- null}
h -t 1.00038592 -s 2 -d 6 -p tcp -e 1040 -c 0 -i 18 -a 0 -x {2.0 3.0 5 ------- null}
h -t 1.00038592 -s 2 -d 6 -p tcp -e 1040 -c 0 -i 19 -a 0 -x {2.0 3.0 6 ------- null}
- -t 1.00038592 -s 0 -d 6 -p tcp -e 1040 -c 0 -i 13 -a 0 -x {0.0 5.0 4 ------- null}
h -t 1.00038592 -s 0 -d 6 -p tcp -e 1040 -c 0 -i 13 -a 0 -x {0.0 5.0 -1 ------- null}
- -t 1.00055648 -s 0 -d 6 -p tcp -e 1040 -c 0 -i 14 -a 0 -x {0.0 5.0 5 ------- null}
h -t 1.00055648 -s 0 -d 6 -p tcp -e 1040 -c 0 -i 14 -a 0 -x {0.0 5.0 -1 ------- null}
- -t 1.00072704 -s 0 -d 6 -p tcp -e 1040 -c 0 -i 15 -a 0 -x {0.0 5.0 6 ------- null}
h -t 1.00072704 -s 0 -d 6 -p tcp -e 1040 -c 0 -i 15 -a 0 -x {0.0 5.0 -1 ------- null}
+ -t 1.10021536 -s 2 -d 6 -p tcp -e 1040 -c 0 -i 16 -a 0 -x {2.0 3.0 3 ------- null}
- -t 1.10021536 -s 2 -d 6 -p tcp -e 1040 -c 0 -i 16 -a 0 -x {2.0 3.0 3 ------- null}
h -t 1.10021536 -s 2 -d 6 -p tcp -e 1040 -c 0 -i 16 -a 0 -x {2.0 3.0 -1 ------- null}
+ -t 1.10021536 -s 2 -d 6 -p tcp -e 1040 -c 0 -i 17 -a 0 -x {2.0 3.0 4 ------- null}
+ -t 1.10038592 -s 2 -d 6 -p tcp -e 1040 -c 0 -i 18 -a 0 -x {2.0 3.0 5 ------- null}
+ -t 1.10038592 -s 2 -d 6 -p tcp -e 1040 -c 0 -i 19 -a 0 -x {2.0 3.0 6 ------- null}
- -t 1.10038592 -s 2 -d 6 -p tcp -e 1040 -c 0 -i 17 -a 0 -x {2.0 3.0 4 ------- null}
h -t 1.10038592 -s 2 -d 6 -p tcp -e 1040 -c 0 -i 17 -a 0 -x {2.0 3.0 -1 ------- null}
r -t 1.100388 -s 6 -d 5 -p tcp -e 1040 -c 0 -i 12 -a 0 -x {0.0 5.0 3 ------- null}
h -t 1.100388 -s 5 -d 6 -p ack -e 40 -c 0 -i 20 -a 0 -x {5.0 0.0 3 ------- null}
- -t 1.10055648 -s 2 -d 6 -p tcp -e 1040 -c 0 -i 18 -a 0 -x {2.0 3.0 5 ------- null}
h -t 1.10055648 -s 2 -d 6 -p tcp -e 1040 -c 0 -i 18 -a 0 -x {2.0 3.0 -1 ------- null}
r -t 1.10055856 -s 6 -d 5 -p tcp -e 1040 -c 0 -i 13 -a 0 -x {0.0 5.0 4 ------- null}
h -t 1.10055856 -s 5 -d 6 -p ack -e 40 -c 0 -i 21 -a 0 -x {5.0 0.0 4 ------- null}
- -t 1.10072704 -s 2 -d 6 -p tcp -e 1040 -c 0 -i 19 -a 0 -x {2.0 3.0 6 ------- null}
h -t 1.10072704 -s 2 -d 6 -p tcp -e 1040 -c 0 -i 19 -a 0 -x {2.0 3.0 -1 ------- null}
r -t 1.10072912 -s 6 -d 5 -p tcp -e 1040 -c 0 -i 14 -a 0 -x {0.0 5.0 5 ------- null}
h -t 1.10072912 -s 5 -d 6 -p ack -e 40 -c 0 -i 22 -a 0 -x {5.0 0.0 5 ------- null}
r -t 1.10089968 -s 6 -d 5 -p tcp -e 1040 -c 0 -i 15 -a 0 -x {0.0 5.0 6 ------- null}
h -t 1.10089968 -s 5 -d 6 -p ack -e 40 -c 0 -i 23 -a 0 -x {5.0 0.0 6 ------- null}
+ -t 1.200388 -s 5 -d 6 -p ack -e 40 -c 0 -i 20 -a 0 -x {5.0 0.0 3 ------- null}
- -t 1.200388 -s 5 -d 6 -p ack -e 40 -c 0 -i 20 -a 0 -x {5.0 0.0 3 ------- null}
h -t 1.200388 -s 5 -d 6 -p ack -e 40 -c 0 -i 20 -a 0 -x {5.0 0.0 -1 ------- null}
r -t 1.200388 -s 6 -d 3 -p tcp -e 1040 -c 0 -i 16 -a 0 -x {2.0 3.0 3 ------- null}
h -t 1.200388 -s 3 -d 6 -p ack -e 40 -c 0 -i 24 -a 0 -x {3.0 2.0 3 ------- null}
+ -t 1.20055856 -s 5 -d 6 -p ack -e 40 -c 0 -i 21 -a 0 -x {5.0 0.0 4 ------- null}
- -t 1.20055856 -s 5 -d 6 -p ack -e 40 -c 0 -i 21 -a 0 -x {5.0 0.0 4 ------- null}
h -t 1.20055856 -s 5 -d 6 -p ack -e 40 -c 0 -i 21 -a 0 -x {5.0 0.0 -1 ------- null}
r -t 1.20055856 -s 6 -d 3 -p tcp -e 1040 -c 0 -i 17 -a 0 -x {2.0 3.0 4 ------- null}
h -t 1.20055856 -s 3 -d 6 -p ack -e 40 -c 0 -i 25 -a 0 -x {3.0 2.0 4 ------- null}
+ -t 1.20072912 -s 5 -d 6 -p ack -e 40 -c 0 -i 22 -a 0 -x {5.0 0.0 5 ------- null}
- -t 1.20072912 -s 5 -d 6 -p ack -e 40 -c 0 -i 22 -a 0 -x {5.0 0.0 5 ------- null}
h -t 1.20072912 -s 5 -d 6 -p ack -e 40 -c 0 -i 22 -a 0 -x {5.0 0.0 -1 ------- null}
r -t 1.20072912 -s 6 -d 3 -p tcp -e 1040 -c 0 -i 18 -a 0 -x {2.0 3.0 5 ------- null}
h -t 1.20072912 -s 3 -d 6 -p ack -e 40 -c 0 -i 26 -a 0 -x {3.0 2.0 5 ------- null}
+ -t 1.20089968 -s 5 -d 6 -p ack -e 40 -c 0 -i 23 -a 0 -x {5.0 0.0 6 ------- null}
- -t 1.20089968 -s 5 -d 6 -p ack -e 40 -c 0 -i 23 -a 0 -x {5.0 0.0 6 ------- null}
h -t 1.20089968 -s 5 -d 6 -p ack -e 40 -c 0 -i 23 -a 0 -x {5.0 0.0 -1 ------- null}
r -t 1.20089968 -s 6 -d 3 -p tcp -e 1040 -c 0 -i 19 -a 0 -x {2.0 3.0 6 ------- null}
h -t 1.20089968 -s 3 -d 6 -p ack -e 40 -c 0 -i 27 -a 0 -x {3.0 2.0 6 ------- null}
+ -t 1.300388 -s 3 -d 6 -p ack -e 40 -c 0 -i 24 -a 0 -x {3.0 2.0 3 ------- null}
- -t 1.300388 -s 3 -d 6 -p ack -e 40 -c 0 -i 24 -a 0 -x {3.0 2.0 3 ------- null}
h -t 1.300388 -s 3 -d 6 -p ack -e 40 -c 0 -i 24 -a 0 -x {3.0 2.0 -1 ------- null}
r -t 1.30040224 -s 6 -d 0 -p ack -e 40 -c 0 -i 20 -a 0 -x {5.0 0.0 3 ------- null}
h -t 1.30040224 -s 0 -d 6 -p tcp -e 1040 -c 0 -i 28 -a 0 -x {0.0 5.0 7 ------- null}
h -t 1.30040224 -s 0 -d 6 -p tcp -e 1040 -c 0 -i 29 -a 0 -x {0.0 5.0 8 ------- null}
+ -t 1.30055856 -s 3 -d 6 -p ack -e 40 -c 0 -i 25 -a 0 -x {3.0 2.0 4 ------- null}
- -t 1.30055856 -s 3 -d 6 -p ack -e 40 -c 0 -i 25 -a 0 -x {3.0 2.0 4 ------- null}
h -t 1.30055856 -s 3 -d 6 -p ack -e 40 -c 0 -i 25 -a 0 -x {3.0 2.0 -1 ------- null}
r -t 1.3005728 -s 6 -d 0 -p ack -e 40 -c 0 -i 21 -a 0 -x {5.0 0.0 4 ------- null}
h -t 1.3005728 -s 0 -d 6 -p tcp -e 1040 -c 0 -i 30 -a 0 -x {0.0 5.0 9 ------- null}
h -t 1.3005728 -s 0 -d 6 -p tcp -e 1040 -c 0 -i 31 -a 0 -x {0.0 5.0 10 ------- null}
+ -t 1.30072912 -s 3 -d 6 -p ack -e 40 -c 0 -i 26 -a 0 -x {3.0 2.0 5 ------- null}
- -t 1.30072912 -s 3 -d 6 -p ack -e 40 -c 0 -i 26 -a 0 -x {3.0 2.0 5 ------- null}
h -t 1.30072912 -s 3 -d 6 -p ack -e 40 -c 0 -i 26 -a 0 -x {3.0 2.0 -1 ------- null}
r -t 1.30074336 -s 6 -d 0 -p ack -e 40 -c 0 -i 22 -a 0 -x {5.0 0.0 5 ------- null}
h -t 1.30074336 -s 0 -d 6 -p tcp -e 1040 -c 0 -i 32 -a 0 -x {0.0 5.0 11 ------- null}
h -t 1.30074336 -s 0 -d 6 -p tcp -e 1040 -c 0 -i 33 -a 0 -x {0.0 5.0 12 ------- null}
+ -t 1.30089968 -s 3 -d 6 -p ack -e 40 -c 0 -i 27 -a 0 -x {3.0 2.0 6 ------- null}
- -t 1.30089968 -s 3 -d 6 -p ack -e 40 -c 0 -i 27 -a 0 -x {3.0 2.0 6 ------- null}
h -t 1.30089968 -s 3 -d 6 -p ack -e 40 -c 0 -i 27 -a 0 -x {3.0 2.0 -1 ------- null}
r -t 1.30091392 -s 6 -d 0 -p ack -e 40 -c 0 -i 23 -a 0 -x {5.0 0.0 6 ------- null}
h -t 1.30091392 -s 0 -d 6 -p tcp -e 1040 -c 0 -i 34 -a 0 -x {0.0 5.0 13 ------- null}
h -t 1.30091392 -s 0 -d 6 -p tcp -e 1040 -c 0 -i 35 -a 0 -x {0.0 5.0 14 ------- null}
+ -t 1.40040224 -s 0 -d 6 -p tcp -e 1040 -c 0 -i 28 -a 0 -x {0.0 5.0 7 ------- null}
- -t 1.40040224 -s 0 -d 6 -p tcp -e 1040 -c 0 -i 28 -a 0 -x {0.0 5.0 7 ------- null}
h -t 1.40040224 -s 0 -d 6 -p tcp -e 1040 -c 0 -i 28 -a 0 -x {0.0 5.0 -1 ------- null}
+ -t 1.40040224 -s 0 -d 6 -p tcp -e 1040 -c 0 -i 29 -a 0 -x {0.0 5.0 8 ------- null}
r -t 1.40040224 -s 6 -d 2 -p ack -e 40 -c 0 -i 24 -a 0 -x {3.0 2.0 3 ------- null}
h -t 1.40040224 -s 2 -d 6 -p tcp -e 1040 -c 0 -i 36 -a 0 -x {2.0 3.0 7 ------- null}
h -t 1.40040224 -s 2 -d 6 -p tcp -e 1040 -c 0 -i 37 -a 0 -x {2.0 3.0 8 ------- null}
+ -t 1.4005728 -s 0 -d 6 -p tcp -e 1040 -c 0 -i 30 -a 0 -x {0.0 5.0 9 ------- null}
+ -t 1.4005728 -s 0 -d 6 -p tcp -e 1040 -c 0 -i 31 -a 0 -x {0.0 5.0 10 ------- null}
r -t 1.4005728 -s 6 -d 2 -p ack -e 40 -c 0 -i 25 -a 0 -x {3.0 2.0 4 ------- null}
h -t 1.4005728 -s 2 -d 6 -p tcp -e 1040 -c 0 -i 38 -a 0 -x {2.0 3.0 9 ------- null}
h -t 1.4005728 -s 2 -d 6 -p tcp -e 1040 -c 0 -i 39 -a 0 -x {2.0 3.0 10 ------- null}
- -t 1.4005728 -s 0 -d 6 -p tcp -e 1040 -c 0 -i 29 -a 0 -x {0.0 5.0 8 ------- null}
h -t 1.4005728 -s 0 -d 6 -p tcp -e 1040 -c 0 -i 29 -a 0 -x {0.0 5.0 -1 ------- null}
+ -t 1.40074336 -s 0 -d 6 -p tcp -e 1040 -c 0 -i 32 -a 0 -x {0.0 5.0 11 ------- null}
+ -t 1.40074336 -s 0 -d 6 -p tcp -e 1040 -c 0 -i 33 -a 0 -x {0.0 5.0 12 ------- null}
r -t 1.40074336 -s 6 -d 2 -p ack -e 40 -c 0 -i 26 -a 0 -x {3.0 2.0 5 ------- null}
h -t 1.40074336 -s 2 -d 6 -p tcp -e 1040 -c 0 -i 40 -a 0 -x {2.0 3.0 11 ------- null}
h -t 1.40074336 -s 2 -d 6 -p tcp -e 1040 -c 0 -i 41 -a 0 -x {2.0 3.0 12 ------- null}
- -t 1.40074336 -s 0 -d 6 -p tcp -e 1040 -c 0 -i 30 -a 0 -x {0.0 5.0 9 ------- null}
h -t 1.40074336 -s 0 -d 6 -p tcp -e 1040 -c 0 -i 30 -a 0 -x {0.0 5.0 -1 ------- null}
+ -t 1.40091392 -s 0 -d 6 -p tcp -e 1040 -c 0 -i 34 -a 0 -x {0.0 5.0 13 ------- null}
+ -t 1.40091392 -s 0 -d 6 -p tcp -e 1040 -c 0 -i 35 -a 0 -x {0.0 5.0 14 ------- null}
r -t 1.40091392 -s 6 -d 2 -p ack -e 40 -c 0 -i 27 -a 0 -x {3.0 2.0 6 ------- null}
h -t 1.40091392 -s 2 -d 6 -p tcp -e 1040 -c 0 -i 42 -a 0 -x {2.0 3.0 13 ------- null}
h -t 1.40091392 -s 2 -d 6 -p tcp -e 1040 -c 0 -i 43 -a 0 -x {2.0 3.0 14 ------- null}
- -t 1.40091392 -s 0 -d 6 -p tcp -e 1040 -c 0 -i 31 -a 0 -x {0.0 5.0 10 ------- null}
h -t 1.40091392 -s 0 -d 6 -p tcp -e 1040 -c 0 -i 31 -a 0 -x {0.0 5.0 -1 ------- null}
- -t 1.40108448 -s 0 -d 6 -p tcp -e 1040 -c 0 -i 32 -a 0 -x {0.0 5.0 11 ------- null}
h -t 1.40108448 -s 0 -d 6 -p tcp -e 1040 -c 0 -i 32 -a 0 -x {0.0 5.0 -1 ------- null}
- -t 1.40125504 -s 0 -d 6 -p tcp -e 1040 -c 0 -i 33 -a 0 -x {0.0 5.0 12 ------- null}
h -t 1.40125504 -s 0 -d 6 -p tcp -e 1040 -c 0 -i 33 -a 0 -x {0.0 5.0 -1 ------- null}
- -t 1.4014256 -s 0 -d 6 -p tcp -e 1040 -c 0 -i 34 -a 0 -x {0.0 5.0 13 ------- null}
h -t 1.4014256 -s 0 -d 6 -p tcp -e 1040 -c 0 -i 34 -a 0 -x {0.0 5.0 -1 ------- null}
- -t 1.40159616 -s 0 -d 6 -p tcp -e 1040 -c 0 -i 35 -a 0 -x {0.0 5.0 14 ------- null}
h -t 1.40159616 -s 0 -d 6 -p tcp -e 1040 -c 0 -i 35 -a 0 -x {0.0 5.0 -1 ------- null}
+ -t 1.50040224 -s 2 -d 6 -p tcp -e 1040 -c 0 -i 36 -a 0 -x {2.0 3.0 7 ------- null}
- -t 1.50040224 -s 2 -d 6 -p tcp -e 1040 -c 0 -i 36 -a 0 -x {2.0 3.0 7 ------- null}
h -t 1.50040224 -s 2 -d 6 -p tcp -e 1040 -c 0 -i 36 -a 0 -x {2.0 3.0 -1 ------- null}
+ -t 1.50040224 -s 2 -d 6 -p tcp -e 1040 -c 0 -i 37 -a 0 -x {2.0 3.0 8 ------- null}
+ -t 1.5005728 -s 2 -d 6 -p tcp -e 1040 -c 0 -i 38 -a 0 -x {2.0 3.0 9 ------- null}
+ -t 1.5005728 -s 2 -d 6 -p tcp -e 1040 -c 0 -i 39 -a 0 -x {2.0 3.0 10 ------- null}
- -t 1.5005728 -s 2 -d 6 -p tcp -e 1040 -c 0 -i 37 -a 0 -x {2.0 3.0 8 ------- null}
h -t 1.5005728 -s 2 -d 6 -p tcp -e 1040 -c 0 -i 37 -a 0 -x {2.0 3.0 -1 ------- null}
r -t 1.50057488 -s 6 -d 5 -p tcp -e 1040 -c 0 -i 28 -a 0 -x {0.0 5.0 7 ------- null}
h -t 1.50057488 -s 5 -d 6 -p ack -e 40 -c 0 -i 44 -a 0 -x {5.0 0.0 7 ------- null}
+ -t 1.50074336 -s 2 -d 6 -p tcp -e 1040 -c 0 -i 40 -a 0 -x {2.0 3.0 11 ------- null}
+ -t 1.50074336 -s 2 -d 6 -p tcp -e 1040 -c 0 -i 41 -a 0 -x {2.0 3.0 12 ------- null}
- -t 1.50074336 -s 2 -d 6 -p tcp -e 1040 -c 0 -i 38 -a 0 -x {2.0 3.0 9 ------- null}
h -t 1.50074336 -s 2 -d 6 -p tcp -e 1040 -c 0 -i 38 -a 0 -x {2.0 3.0 -1 ------- null}
r -t 1.50074544 -s 6 -d 5 -p tcp -e 1040 -c 0 -i 29 -a 0 -x {0.0 5.0 8 ------- null}
h -t 1.50074544 -s 5 -d 6 -p ack -e 40 -c 0 -i 45 -a 0 -x {5.0 0.0 8 ------- null}
+ -t 1.50091392 -s 2 -d 6 -p tcp -e 1040 -c 0 -i 42 -a 0 -x {2.0 3.0 13 ------- null}
+ -t 1.50091392 -s 2 -d 6 -p tcp -e 1040 -c 0 -i 43 -a 0 -x {2.0 3.0 14 ------- null}
- -t 1.50091392 -s 2 -d 6 -p tcp -e 1040 -c 0 -i 39 -a 0 -x {2.0 3.0 10 ------- null}
h -t 1.50091392 -s 2 -d 6 -p tcp -e 1040 -c 0 -i 39 -a 0 -x {2.0 3.0 -1 ------- null}
r -t 1.500916 -s 6 -d 5 -p tcp -e 1040 -c 0 -i 30 -a 0 -x {0.0 5.0 9 ------- null}
h -t 1.500916 -s 5 -d 6 -p ack -e 40 -c 0 -i 46 -a 0 -x {5.0 0.0 9 ------- null}
- -t 1.50108448 -s 2 -d 6 -p tcp -e 1040 -c 0 -i 40 -a 0 -x {2.0 3.0 11 ------- null}
h -t 1.50108448 -s 2 -d 6 -p tcp -e 1040 -c 0 -i 40 -a 0 -x {2.0 3.0 -1 ------- null}
r -t 1.50108656 -s 6 -d 5 -p tcp -e 1040 -c 0 -i 31 -a 0 -x {0.0 5.0 10 ------- null}
h -t 1.50108656 -s 5 -d 6 -p ack -e 40 -c 0 -i 47 -a 0 -x {5.0 0.0 10 ------- null}
- -t 1.50125504 -s 2 -d 6 -p tcp -e 1040 -c 0 -i 41 -a 0 -x {2.0 3.0 12 ------- null}
h -t 1.50125504 -s 2 -d 6 -p tcp -e 1040 -c 0 -i 41 -a 0 -x {2.0 3.0 -1 ------- null}
r -t 1.50125712 -s 6 -d 5 -p tcp -e 1040 -c 0 -i 32 -a 0 -x {0.0 5.0 11 ------- null}
h -t 1.50125712 -s 5 -d 6 -p ack -e 40 -c 0 -i 48 -a 0 -x {5.0 0.0 11 ------- null}
- -t 1.5014256 -s 2 -d 6 -p tcp -e 1040 -c 0 -i 42 -a 0 -x {2.0 3.0 13 ------- null}
h -t 1.5014256 -s 2 -d 6 -p tcp -e 1040 -c 0 -i 42 -a 0 -x {2.0 3.0 -1 ------- null}
r -t 1.50142768 -s 6 -d 5 -p tcp -e 1040 -c 0 -i 33 -a 0 -x {0.0 5.0 12 ------- null}
h -t 1.50142768 -s 5 -d 6 -p ack -e 40 -c 0 -i 49 -a 0 -x {5.0 0.0 12 ------- null}
- -t 1.50159616 -s 2 -d 6 -p tcp -e 1040 -c 0 -i 43 -a 0 -x {2.0 3.0 14 ------- null}
h -t 1.50159616 -s 2 -d 6 -p tcp -e 1040 -c 0 -i 43 -a 0 -x {2.0 3.0 -1 ------- null}
r -t 1.50159824 -s 6 -d 5 -p tcp -e 1040 -c 0 -i 34 -a 0 -x {0.0 5.0 13 ------- null}
h -t 1.50159824 -s 5 -d 6 -p ack -e 40 -c 0 -i 50 -a 0 -x {5.0 0.0 13 ------- null}
r -t 1.5017688 -s 6 -d 5 -p tcp -e 1040 -c 0 -i 35 -a 0 -x {0.0 5.0 14 ------- null}
h -t 1.5017688 -s 5 -d 6 -p ack -e 40 -c 0 -i 51 -a 0 -x {5.0 0.0 14 ------- null}
+ -t 1.60057488 -s 5 -d 6 -p ack -e 40 -c 0 -i 44 -a 0 -x {5.0 0.0 7 ------- null}
- -t 1.60057488 -s 5 -d 6 -p ack -e 40 -c 0 -i 44 -a 0 -x {5.0 0.0 7 ------- null}
h -t 1.60057488 -s 5 -d 6 -p ack -e 40 -c 0 -i 44 -a 0 -x {5.0 0.0 -1 ------- null}
r -t 1.60057488 -s 6 -d 3 -p tcp -e 1040 -c 0 -i 36 -a 0 -x {2.0 3.0 7 ------- null}
h -t 1.60057488 -s 3 -d 6 -p ack -e 40 -c 0 -i 52 -a 0 -x {3.0 2.0 7 ------- null}
+ -t 1.60074544 -s 5 -d 6 -p ack -e 40 -c 0 -i 45 -a 0 -x {5.0 0.0 8 ------- null}
- -t 1.60074544 -s 5 -d 6 -p ack -e 40 -c 0 -i 45 -a 0 -x {5.0 0.0 8 ------- null}
h -t 1.60074544 -s 5 -d 6 -p ack -e 40 -c 0 -i 45 -a 0 -x {5.0 0.0 -1 ------- null}
r -t 1.60074544 -s 6 -d 3 -p tcp -e 1040 -c 0 -i 37 -a 0 -x {2.0 3.0 8 ------- null}
h -t 1.60074544 -s 3 -d 6 -p ack -e 40 -c 0 -i 53 -a 0 -x {3.0 2.0 8 ------- null}
+ -t 1.600916 -s 5 -d 6 -p ack -e 40 -c 0 -i 46 -a 0 -x {5.0 0.0 9 ------- null}
- -t 1.600916 -s 5 -d 6 -p ack -e 40 -c 0 -i 46 -a 0 -x {5.0 0.0 9 ------- null}
h -t 1.600916 -s 5 -d 6 -p ack -e 40 -c 0 -i 46 -a 0 -x {5.0 0.0 -1 ------- null}
r -t 1.600916 -s 6 -d 3 -p tcp -e 1040 -c 0 -i 38 -a 0 -x {2.0 3.0 9 ------- null}
h -t 1.600916 -s 3 -d 6 -p ack -e 40 -c 0 -i 54 -a 0 -x {3.0 2.0 9 ------- null}
+ -t 1.60108656 -s 5 -d 6 -p ack -e 40 -c 0 -i 47 -a 0 -x {5.0 0.0 10 ------- null}
- -t 1.60108656 -s 5 -d 6 -p ack -e 40 -c 0 -i 47 -a 0 -x {5.0 0.0 10 ------- null}
h -t 1.60108656 -s 5 -d 6 -p ack -e 40 -c 0 -i 47 -a 0 -x {5.0 0.0 -1 ------- null}
r -t 1.60108656 -s 6 -d 3 -p tcp -e 1040 -c 0 -i 39 -a 0 -x {2.0 3.0 10 ------- null}
h -t 1.60108656 -s 3 -d 6 -p ack -e 40 -c 0 -i 55 -a 0 -x {3.0 2.0 10 ------- null}
+ -t 1.60125712 -s 5 -d 6 -p ack -e 40 -c 0 -i 48 -a 0 -x {5.0 0.0 11 ------- null}
- -t 1.60125712 -s 5 -d 6 -p ack -e 40 -c 0 -i 48 -a 0 -x {5.0 0.0 11 ------- null}
h -t 1.60125712 -s 5 -d 6 -p ack -e 40 -c 0 -i 48 -a 0 -x {5.0 0.0 -1 ------- null}
r -t 1.60125712 -s 6 -d 3 -p tcp -e 1040 -c 0 -i 40 -a 0 -x {2.0 3.0 11 ------- null}
h -t 1.60125712 -s 3 -d 6 -p ack -e 40 -c 0 -i 56 -a 0 -x {3.0 2.0 11 ------- null}
+ -t 1.60142768 -s 5 -d 6 -p ack -e 40 -c 0 -i 49 -a 0 -x {5.0 0.0 12 ------- null}
- -t 1.60142768 -s 5 -d 6 -p ack -e 40 -c 0 -i 49 -a 0 -x {5.0 0.0 12 ------- null}
h -t 1.60142768 -s 5 -d 6 -p ack -e 40 -c 0 -i 49 -a 0 -x {5.0 0.0 -1 ------- null}
r -t 1.60142768 -s 6 -d 3 -p tcp -e 1040 -c 0 -i 41 -a 0 -x {2.0 3.0 12 ------- null}
h -t 1.60142768 -s 3 -d 6 -p ack -e 40 -c 0 -i 57 -a 0 -x {3.0 2.0 12 ------- null}
+ -t 1.60159824 -s 5 -d 6 -p ack -e 40 -c 0 -i 50 -a 0 -x {5.0 0.0 13 ------- null}
- -t 1.60159824 -s 5 -d 6 -p ack -e 40 -c 0 -i 50 -a 0 -x {5.0 0.0 13 ------- null}
h -t 1.60159824 -s 5 -d 6 -p ack -e 40 -c 0 -i 50 -a 0 -x {5.0 0.0 -1 ------- null}
r -t 1.60159824 -s 6 -d 3 -p tcp -e 1040 -c 0 -i 42 -a 0 -x {2.0 3.0 13 ------- null}
h -t 1.60159824 -s 3 -d 6 -p ack -e 40 -c 0 -i 58 -a 0 -x {3.0 2.0 13 ------- null}
+ -t 1.6017688 -s 5 -d 6 -p ack -e 40 -c 0 -i 51 -a 0 -x {5.0 0.0 14 ------- null}
- -t 1.6017688 -s 5 -d 6 -p ack -e 40 -c 0 -i 51 -a 0 -x {5.0 0.0 14 ------- null}
h -t 1.6017688 -s 5 -d 6 -p ack -e 40 -c 0 -i 51 -a 0 -x {5.0 0.0 -1 ------- null}
r -t 1.6017688 -s 6 -d 3 -p tcp -e 1040 -c 0 -i 43 -a 0 -x {2.0 3.0 14 ------- null}
h -t 1.6017688 -s 3 -d 6 -p ack -e 40 -c 0 -i 59 -a 0 -x {3.0 2.0 14 ------- null}
+ -t 1.70057488 -s 3 -d 6 -p ack -e 40 -c 0 -i 52 -a 0 -x {3.0 2.0 7 ------- null}
- -t 1.70057488 -s 3 -d 6 -p ack -e 40 -c 0 -i 52 -a 0 -x {3.0 2.0 7 ------- null}
h -t 1.70057488 -s 3 -d 6 -p ack -e 40 -c 0 -i 52 -a 0 -x {3.0 2.0 -1 ------- null}
r -t 1.70058912 -s 6 -d 0 -p ack -e 40 -c 0 -i 44 -a 0 -x {5.0 0.0 7 ------- null}
h -t 1.70058912 -s 0 -d 6 -p tcp -e 1040 -c 0 -i 60 -a 0 -x {0.0 5.0 15 ------- null}
h -t 1.70058912 -s 0 -d 6 -p tcp -e 1040 -c 0 -i 61 -a 0 -x {0.0 5.0 16 ------- null}
+ -t 1.70074544 -s 3 -d 6 -p ack -e 40 -c 0 -i 53 -a 0 -x {3.0 2.0 8 ------- null}
- -t 1.70074544 -s 3 -d 6 -p ack -e 40 -c 0 -i 53 -a 0 -x {3.0 2.0 8 ------- null}
h -t 1.70074544 -s 3 -d 6 -p ack -e 40 -c 0 -i 53 -a 0 -x {3.0 2.0 -1 ------- null}
r -t 1.70075968 -s 6 -d 0 -p ack -e 40 -c 0 -i 45 -a 0 -x {5.0 0.0 8 ------- null}
h -t 1.70075968 -s 0 -d 6 -p tcp -e 1040 -c 0 -i 62 -a 0 -x {0.0 5.0 17 ------- null}
h -t 1.70075968 -s 0 -d 6 -p tcp -e 1040 -c 0 -i 63 -a 0 -x {0.0 5.0 18 ------- null}
+ -t 1.700916 -s 3 -d 6 -p ack -e 40 -c 0 -i 54 -a 0 -x {3.0 2.0 9 ------- null}
- -t 1.700916 -s 3 -d 6 -p ack -e 40 -c 0 -i 54 -a 0 -x {3.0 2.0 9 ------- null}
h -t 1.700916 -s 3 -d 6 -p ack -e 40 -c 0 -i 54 -a 0 -x {3.0 2.0 -1 ------- null}
r -t 1.70093024 -s 6 -d 0 -p ack -e 40 -c 0 -i 46 -a 0 -x {5.0 0.0 9 ------- null}
h -t 1.70093024 -s 0 -d 6 -p tcp -e 1040 -c 0 -i 64 -a 0 -x {0.0 5.0 19 ------- null}
h -t 1.70093024 -s 0 -d 6 -p tcp -e 1040 -c 0 -i 65 -a 0 -x {0.0 5.0 20 ------- null}
+ -t 1.70108656 -s 3 -d 6 -p ack -e 40 -c 0 -i 55 -a 0 -x {3.0 2.0 10 ------- null}
- -t 1.70108656 -s 3 -d 6 -p ack -e 40 -c 0 -i 55 -a 0 -x {3.0 2.0 10 ------- null}
h -t 1.70108656 -s 3 -d 6 -p ack -e 40 -c 0 -i 55 -a 0 -x {3.0 2.0 -1 ------- null}
r -t 1.7011008 -s 6 -d 0 -p ack -e 40 -c 0 -i 47 -a 0 -x {5.0 0.0 10 ------- null}
h -t 1.7011008 -s 0 -d 6 -p tcp -e 1040 -c 0 -i 66 -a 0 -x {0.0 5.0 21 ------- null}
h -t 1.7011008 -s 0 -d 6 -p tcp -e 1040 -c 0 -i 67 -a 0 -x {0.0 5.0 22 ------- null}
+ -t 1.70125712 -s 3 -d 6 -p ack -e 40 -c 0 -i 56 -a 0 -x {3.0 2.0 11 ------- null}
- -t 1.70125712 -s 3 -d 6 -p ack -e 40 -c 0 -i 56 -a 0 -x {3.0 2.0 11 ------- null}
h -t 1.70125712 -s 3 -d 6 -p ack -e 40 -c 0 -i 56 -a 0 -x {3.0 2.0 -1 ------- null}
r -t 1.70127136 -s 6 -d 0 -p ack -e 40 -c 0 -i 48 -a 0 -x {5.0 0.0 11 ------- null}
h -t 1.70127136 -s 0 -d 6 -p tcp -e 1040 -c 0 -i 68 -a 0 -x {0.0 5.0 23 ------- null}
h -t 1.70127136 -s 0 -d 6 -p tcp -e 1040 -c 0 -i 69 -a 0 -x {0.0 5.0 24 ------- null}
+ -t 1.70142768 -s 3 -d 6 -p ack -e 40 -c 0 -i 57 -a 0 -x {3.0 2.0 12 ------- null}
- -t 1.70142768 -s 3 -d 6 -p ack -e 40 -c 0 -i 57 -a 0 -x {3.0 2.0 12 ------- null}
h -t 1.70142768 -s 3 -d 6 -p ack -e 40 -c 0 -i 57 -a 0 -x {3.0 2.0 -1 ------- null}
r -t 1.70144192 -s 6 -d 0 -p ack -e 40 -c 0 -i 49 -a 0 -x {5.0 0.0 12 ------- null}
h -t 1.70144192 -s 0 -d 6 -p tcp -e 1040 -c 0 -i 70 -a 0 -x {0.0 5.0 25 ------- null}
h -t 1.70144192 -s 0 -d 6 -p tcp -e 1040 -c 0 -i 71 -a 0 -x {0.0 5.0 26 ------- null}
+ -t 1.70159824 -s 3 -d 6 -p ack -e 40 -c 0 -i 58 -a 0 -x {3.0 2.0 13 ------- null}
- -t 1.70159824 -s 3 -d 6 -p ack -e 40 -c 0 -i 58 -a 0 -x {3.0 2.0 13 ------- null}
h -t 1.70159824 -s 3 -d 6 -p ack -e 40 -c 0 -i 58 -a 0 -x {3.0 2.0 -1 ------- null}
r -t 1.70161248 -s 6 -d 0 -p ack -e 40 -c 0 -i 50 -a 0 -x {5.0 0.0 13 ------- null}
h -t 1.70161248 -s 0 -d 6 -p tcp -e 1040 -c 0 -i 72 -a 0 -x {0.0 5.0 27 ------- null}
h -t 1.70161248 -s 0 -d 6 -p tcp -e 1040 -c 0 -i 73 -a 0 -x {0.0 5.0 28 ------- null}
+ -t 1.7017688 -s 3 -d 6 -p ack -e 40 -c 0 -i 59 -a 0 -x {3.0 2.0 14 ------- null}
- -t 1.7017688 -s 3 -d 6 -p ack -e 40 -c 0 -i 59 -a 0 -x {3.0 2.0 14 ------- null}
h -t 1.7017688 -s 3 -d 6 -p ack -e 40 -c 0 -i 59 -a 0 -x {3.0 2.0 -1 ------- null}
r -t 1.70178304 -s 6 -d 0 -p ack -e 40 -c 0 -i 51 -a 0 -x {5.0 0.0 14 ------- null}
h -t 1.70178304 -s 0 -d 6 -p tcp -e 1040 -c 0 -i 74 -a 0 -x {0.0 5.0 29 ------- null}
h -t 1.70178304 -s 0 -d 6 -p tcp -e 1040 -c 0 -i 75 -a 0 -x {0.0 5.0 30 ------- null}
+ -t 1.80058912 -s 0 -d 6 -p tcp -e 1040 -c 0 -i 60 -a 0 -x {0.0 5.0 15 ------- null}
- -t 1.80058912 -s 0 -d 6 -p tcp -e 1040 -c 0 -i 60 -a 0 -x {0.0 5.0 15 ------- null}
h -t 1.80058912 -s 0 -d 6 -p tcp -e 1040 -c 0 -i 60 -a 0 -x {0.0 5.0 -1 ------- null}
+ -t 1.80058912 -s 0 -d 6 -p tcp -e 1040 -c 0 -i 61 -a 0 -x {0.0 5.0 16 ------- null}
r -t 1.80058912 -s 6 -d 2 -p ack -e 40 -c 0 -i 52 -a 0 -x {3.0 2.0 7 ------- null}
h -t 1.80058912 -s 2 -d 6 -p tcp -e 1040 -c 0 -i 76 -a 0 -x {2.0 3.0 15 ------- null}
h -t 1.80058912 -s 2 -d 6 -p tcp -e 1040 -c 0 -i 77 -a 0 -x {2.0 3.0 16 ------- null}
+ -t 1.80075968 -s 0 -d 6 -p tcp -e 1040 -c 0 -i 62 -a 0 -x {0.0 5.0 17 ------- null}
+ -t 1.80075968 -s 0 -d 6 -p tcp -e 1040 -c 0 -i 63 -a 0 -x {0.0 5.0 18 ------- null}
r -t 1.80075968 -s 6 -d 2 -p ack -e 40 -c 0 -i 53 -a 0 -x {3.0 2.0 8 ------- null}
h -t 1.80075968 -s 2 -d 6 -p tcp -e 1040 -c 0 -i 78 -a 0 -x {2.0 3.0 17 ------- null}
h -t 1.80075968 -s 2 -d 6 -p tcp -e 1040 -c 0 -i 79 -a 0 -x {2.0 3.0 18 ------- null}
- -t 1.80075968 -s 0 -d 6 -p tcp -e 1040 -c 0 -i 61 -a 0 -x {0.0 5.0 16 ------- null}
h -t 1.80075968 -s 0 -d 6 -p tcp -e 1040 -c 0 -i 61 -a 0 -x {0.0 5.0 -1 ------- null}
+ -t 1.80093024 -s 0 -d 6 -p tcp -e 1040 -c 0 -i 64 -a 0 -x {0.0 5.0 19 ------- null}
+ -t 1.80093024 -s 0 -d 6 -p tcp -e 1040 -c 0 -i 65 -a 0 -x {0.0 5.0 20 ------- null}
r -t 1.80093024 -s 6 -d 2 -p ack -e 40 -c 0 -i 54 -a 0 -x {3.0 2.0 9 ------- null}
h -t 1.80093024 -s 2 -d 6 -p tcp -e 1040 -c 0 -i 80 -a 0 -x {2.0 3.0 19 ------- null}
h -t 1.80093024 -s 2 -d 6 -p tcp -e 1040 -c 0 -i 81 -a 0 -x {2.0 3.0 20 ------- null}
- -t 1.80093024 -s 0 -d 6 -p tcp -e 1040 -c 0 -i 62 -a 0 -x {0.0 5.0 17 ------- null}
h -t 1.80093024 -s 0 -d 6 -p tcp -e 1040 -c 0 -i 62 -a 0 -x {0.0 5.0 -1 ------- null}
+ -t 1.8011008 -s 0 -d 6 -p tcp -e 1040 -c 0 -i 66 -a 0 -x {0.0 5.0 21 ------- null}
+ -t 1.8011008 -s 0 -d 6 -p tcp -e 1040 -c 0 -i 67 -a 0 -x {0.0 5.0 22 ------- null}
r -t 1.8011008 -s 6 -d 2 -p ack -e 40 -c 0 -i 55 -a 0 -x {3.0 2.0 10 ------- null}
h -t 1.8011008 -s 2 -d 6 -p tcp -e 1040 -c 0 -i 82 -a 0 -x {2.0 3.0 21 ------- null}
h -t 1.8011008 -s 2 -d 6 -p tcp -e 1040 -c 0 -i 83 -a 0 -x {2.0 3.0 22 ------- null}
- -t 1.8011008 -s 0 -d 6 -p tcp -e 1040 -c 0 -i 63 -a 0 -x {0.0 5.0 18 ------- null}
h -t 1.8011008 -s 0 -d 6 -p tcp -e 1040 -c 0 -i 63 -a 0 -x {0.0 5.0 -1 ------- null}
+ -t 1.80127136 -s 0 -d 6 -p tcp -e 1040 -c 0 -i 68 -a 0 -x {0.0 5.0 23 ------- null}
+ -t 1.80127136 -s 0 -d 6 -p tcp -e 1040 -c 0 -i 69 -a 0 -x {0.0 5.0 24 ------- null}
r -t 1.80127136 -s 6 -d 2 -p ack -e 40 -c 0 -i 56 -a 0 -x {3.0 2.0 11 ------- null}
h -t 1.80127136 -s 2 -d 6 -p tcp -e 1040 -c 0 -i 84 -a 0 -x {2.0 3.0 23 ------- null}
h -t 1.80127136 -s 2 -d 6 -p tcp -e 1040 -c 0 -i 85 -a 0 -x {2.0 3.0 24 ------- null}
- -t 1.80127136 -s 0 -d 6 -p tcp -e 1040 -c 0 -i 64 -a 0 -x {0.0 5.0 19 ------- null}
h -t 1.80127136 -s 0 -d 6 -p tcp -e 1040 -c 0 -i 64 -a 0 -x {0.0 5.0 -1 ------- null}
+ -t 1.80144192 -s 0 -d 6 -p tcp -e 1040 -c 0 -i 70 -a 0 -x {0.0 5.0 25 ------- null}
+ -t 1.80144192 -s 0 -d 6 -p tcp -e 1040 -c 0 -i 71 -a 0 -x {0.0 5.0 26 ------- null}
r -t 1.80144192 -s 6 -d 2 -p ack -e 40 -c 0 -i 57 -a 0 -x {3.0 2.0 12 ------- null}
h -t 1.80144192 -s 2 -d 6 -p tcp -e 1040 -c 0 -i 86 -a 0 -x {2.0 3.0 25 ------- null}