h 0.1 0 6 tcp 40 ------- 0 0.0 5.0 0 0
h 0.2 5 6 tcp 40 ------- 0 5.1 3.0 0 1
+ 0.2 0 6 tcp 40 ------- 0 0.0 5.0 0 0
- 0.2 0 6 tcp 40 ------- 0 0.0 5.0 0 0
+ 0.3 5 6 tcp 40 ------- 0 5.1 3.0 0 1
- 0.3 5 6 tcp 40 ------- 0 5.1 3.0 0 1
r 0.300014 6 5 tcp 40 ------- 0 0.0 5.0 0 0
h 0.300014 5 6 ack 40 ------- 0 5.0 0.0 0 2
+ 0.400014 5 6 ack 40 ------- 0 5.0 0.0 0 2
- 0.400014 5 6 ack 40 ------- 0 5.0 0.0 0 2
r 0.400014 6 3 tcp 40 ------- 0 5.1 3.0 0 1
h 0.400014 3 6 ack 40 ------- 0 3.0 5.1 0 3
+ 0.500014 3 6 ack 40 ------- 0 3.0 5.1 0 3
- 0.500014 3 6 ack 40 ------- 0 3.0 5.1 0 3
r 0.500028 6 0 ack 40 ------- 0 5.0 0.0 0 2
h 0.500028 0 6 tcp 1040 ------- 0 0.0 5.0 1 4
h 0.500028 0 6 tcp 1040 ------- 0 0.0 5.0 2 5
+ 0.600028 0 6 tcp 1040 ------- 0 0.0 5.0 1 4
- 0.600028 0 6 tcp 1040 ------- 0 0.0 5.0 1 4
+ 0.600028 0 6 tcp 1040 ------- 0 0.0 5.0 2 5
r 0.600028 6 5 ack 40 ------- 0 3.0 5.1 0 3
h 0.600028 5 6 tcp 1040 ------- 0 5.1 3.0 1 6
h 0.600028 5 6 tcp 1040 ------- 0 5.1 3.0 2 7
- 0.600199 0 6 tcp 1040 ------- 0 0.0 5.0 2 5
+ 0.700028 5 6 tcp 1040 ------- 0 5.1 3.0 1 6
- 0.700028 5 6 tcp 1040 ------- 0 5.1 3.0 1 6
+ 0.700028 5 6 tcp 1040 ------- 0 5.1 3.0 2 7
- 0.700199 5 6 tcp 1040 ------- 0 5.1 3.0 2 7
r 0.700201 6 5 tcp 1040 ------- 0 0.0 5.0 1 4
h 0.700201 5 6 ack 40 ------- 0 5.0 0.0 1 8
r 0.700372 6 5 tcp 1040 ------- 0 0.0 5.0 2 5
h 0.700372 5 6 ack 40 ------- 0 5.0 0.0 2 9
+ 0.800201 5 6 ack 40 ------- 0 5.0 0.0 1 8
- 0.800201 5 6 ack 40 ------- 0 5.0 0.0 1 8
r 0.800201 6 3 tcp 1040 ------- 0 5.1 3.0 1 6
h 0.800201 3 6 ack 40 ------- 0 3.0 5.1 1 10
+ 0.800372 5 6 ack 40 ------- 0 5.0 0.0 2 9
- 0.800372 5 6 ack 40 ------- 0 5.0 0.0 2 9
r 0.800372 6 3 tcp 1040 ------- 0 5.1 3.0 2 7
h 0.800372 3 6 ack 40 ------- 0 3.0 5.1 2 11
+ 0.900201 3 6 ack 40 ------- 0 3.0 5.1 1 10
- 0.900201 3 6 ack 40 ------- 0 3.0 5.1 1 10
r 0.900215 6 0 ack 40 ------- 0 5.0 0.0 1 8
h 0.900215 0 6 tcp 1040 ------- 0 0.0 5.0 3 12
h 0.900215 0 6 tcp 1040 ------- 0 0.0 5.0 4 13
+ 0.900372 3 6 ack 40 ------- 0 3.0 5.1 2 11
- 0.900372 3 6 ack 40 ------- 0 3.0 5.1 2 11
r 0.900386 6 0 ack 40 ------- 0 5.0 0.0 2 9
h 0.900386 0 6 tcp 1040 ------- 0 0.0 5.0 5 14
h 0.900386 0 6 tcp 1040 ------- 0 0.0 5.0 6 15
+ 1.000215 0 6 tcp 1040 ------- 0 0.0 5.0 3 12
- 1.000215 0 6 tcp 1040 ------- 0 0.0 5.0 3 12
+ 1.000215 0 6 tcp 1040 ------- 0 0.0 5.0 4 13
r 1.000215 6 5 ack 40 ------- 0 3.0 5.1 1 10
h 1.000215 5 6 tcp 1040 ------- 0 5.1 3.0 3 16
h 1.000215 5 6 tcp 1040 ------- 0 5.1 3.0 4 17
+ 1.000386 0 6 tcp 1040 ------- 0 0.0 5.0 5 14
+ 1.000386 0 6 tcp 1040 ------- 0 0.0 5.0 6 15
r 1.000386 6 5 ack 40 ------- 0 3.0 5.1 2 11
h 1.000386 5 6 tcp 1040 ------- 0 5.1 3.0 5 18
h 1.000386 5 6 tcp 1040 ------- 0 5.1 3.0 6 19
- 1.000386 0 6 tcp 1040 ------- 0 0.0 5.0 4 13
- 1.000556 0 6 tcp 1040 ------- 0 0.0 5.0 5 14
- 1.000727 0 6 tcp 1040 ------- 0 0.0 5.0 6 15
+ 1.100215 5 6 tcp 1040 ------- 0 5.1 3.0 3 16
- 1.100215 5 6 tcp 1040 ------- 0 5.1 3.0 3 16
+ 1.100215 5 6 tcp 1040 ------- 0 5.1 3.0 4 17
+ 1.100386 5 6 tcp 1040 ------- 0 5.1 3.0 5 18
+ 1.100386 5 6 tcp 1040 ------- 0 5.1 3.0 6 19
- 1.100386 5 6 tcp 1040 ------- 0 5.1 3.0 4 17
r 1.100388 6 5 tcp 1040 ------- 0 0.0 5.0 3 12
h 1.100388 5 6 ack 40 ------- 0 5.0 0.0 3 20
- 1.100556 5 6 tcp 1040 ------- 0 5.1 3.0 5 18
r 1.100559 6 5 tcp 1040 ------- 0 0.0 5.0 4 13
h 1.100559 5 6 ack 40 ------- 0 5.0 0.0 4 21
- 1.100727 5 6 tcp 1040 ------- 0 5.1 3.0 6 19
r 1.100729 6 5 tcp 1040 ------- 0 0.0 5.0 5 14
h 1.100729 5 6 ack 40 ------- 0 5.0 0.0 5 22
r 1.1009 6 5 tcp 1040 ------- 0 0.0 5.0 6 15
h 1.1009 5 6 ack 40 ------- 0 5.0 0.0 6 23
+ 1.200388 5 6 ack 40 ------- 0 5.0 0.0 3 20
- 1.200388 5 6 ack 40 ------- 0 5.0 0.0 3 20
r 1.200388 6 3 tcp 1040 ------- 0 5.1 3.0 3 16
h 1.200388 3 6 ack 40 ------- 0 3.0 5.1 3 24
+ 1.200559 5 6 ack 40 ------- 0 5.0 0.0 4 21
- 1.200559 5 6 ack 40 ------- 0 5.0 0.0 4 21
r 1.200559 6 3 tcp 1040 ------- 0 5.1 3.0 4 17
h 1.200559 3 6 ack 40 ------- 0 3.0 5.1 4 25
+ 1.200729 5 6 ack 40 ------- 0 5.0 0.0 5 22
- 1.200729 5 6 ack 40 ------- 0 5.0 0.0 5 22
r 1.200729 6 3 tcp 1040 ------- 0 5.1 3.0 5 18
h 1.200729 3 6 ack 40 ------- 0 3.0 5.1 5 26
+ 1.2009 5 6 ack 40 ------- 0 5.0 0.0 6 23
- 1.2009 5 6 ack 40 ------- 0 5.0 0.0 6 23
r 1.2009 6 3 tcp 1040 ------- 0 5.1 3.0 6 19
h 1.2009 3 6 ack 40 ------- 0 3.0 5.1 6 27
+ 1.300388 3 6 ack 40 ------- 0 3.0 5.1 3 24
- 1.300388 3 6 ack 40 ------- 0 3.0 5.1 3 24
r 1.300402 6 0 ack 40 ------- 0 5.0 0.0 3 20
h 1.300402 0 6 tcp 1040 ------- 0 0.0 5.0 7 28
h 1.300402 0 6 tcp 1040 ------- 0 0.0 5.0 8 29
+ 1.300559 3 6 ack 40 ------- 0 3.0 5.1 4 25
- 1.300559 3 6 ack 40 ------- 0 3.0 5.1 4 25
r 1.300573 6 0 ack 40 ------- 0 5.0 0.0 4 21
h 1.300573 0 6 tcp 1040 ------- 0 0.0 5.0 9 30
h 1.300573 0 6 tcp 1040 ------- 0 0.0 5.0 10 31
+ 1.300729 3 6 ack 40 ------- 0 3.0 5.1 5 26
- 1.300729 3 6 ack 40 ------- 0 3.0 5.1 5 26
r 1.300743 6 0 ack 40 ------- 0 5.0 0.0 5 22
h 1.300743 0 6 tcp 1040 ------- 0 0.0 5.0 11 32
h 1.300743 0 6 tcp 1040 ------- 0 0.0 5.0 12 33
+ 1.3009 3 6 ack 40 ------- 0 3.0 5.1 6 27
- 1.3009 3 6 ack 40 ------- 0 3.0 5.1 6 27
r 1.300914 6 0 ack 40 ------- 0 5.0 0.0 6 23
h 1.300914 0 6 tcp 1040 ------- 0 0.0 5.0 13 34
h 1.300914 0 6 tcp 1040 ------- 0 0.0 5.0 14 35
+ 1.400402 0 6 tcp 1040 ------- 0 0.0 5.0 7 28
- 1.400402 0 6 tcp 1040 ------- 0 0.0 5.0 7 28
+ 1.400402 0 6 tcp 1040 ------- 0 0.0 5.0 8 29
r 1.400402 6 5 ack 40 ------- 0 3.0 5.1 3 24
h 1.400402 5 6 tcp 1040 ------- 0 5.1 3.0 7 36
h 1.400402 5 6 tcp 1040 ------- 0 5.1 3.0 8 37
+ 1.400573 0 6 tcp 1040 ------- 0 0.0 5.0 9 30
+ 1.400573 0 6 tcp 1040 ------- 0 0.0 5.0 10 31
r 1.400573 6 5 ack 40 ------- 0 3.0 5.1 4 25
h 1.400573 5 6 tcp 1040 ------- 0 5.1 3.0 9 38
h 1.400573 5 6 tcp 1040 ------- 0 5.1 3.0 10 39
- 1.400573 0 6 tcp 1040 ------- 0 0.0 5.0 8 29
+ 1.400743 0 6 tcp 1040 ------- 0 0.0 5.0 11 32
+ 1.400743 0 6 tcp 1040 ------- 0 0.0 5.0 12 33
r 1.400743 6 5 ack 40 ------- 0 3.0 5.1 5 26
h 1.400743 5 6 tcp 1040 ------- 0 5.1 3.0 11 40
h 1.400743 5 6 tcp 1040 ------- 0 5.1 3.0 12 41
- 1.400743 0 6 tcp 1040 ------- 0 0.0 5.0 9 30
+ 1.400914 0 6 tcp 1040 ------- 0 0.0 5.0 13 34
+ 1.400914 0 6 tcp 1040 ------- 0 0.0 5.0 14 35
r 1.400914 6 5 ack 40 ------- 0 3.0 5.1 6 27
h 1.400914 5 6 tcp 1040 ------- 0 5.1 3.0 13 42
h 1.400914 5 6 tcp 1040 ------- 0 5.1 3.0 14 43
- 1.400914 0 6 tcp 1040 ------- 0 0.0 5.0 10 31
- 1.401084 0 6 tcp 1040 ------- 0 0.0 5.0 11 32
- 1.401255 0 6 tcp 1040 ------- 0 0.0 5.0 12 33
- 1.401426 0 6 tcp 1040 ------- 0 0.0 5.0 13 34
- 1.401596 0 6 tcp 1040 ------- 0 0.0 5.0 14 35
+ 1.500402 5 6 tcp 1040 ------- 0 5.1 3.0 7 36
- 1.500402 5 6 tcp 1040 ------- 0 5.1 3.0 7 36
+ 1.500402 5 6 tcp 1040 ------- 0 5.1 3.0 8 37
+ 1.500573 5 6 tcp 1040 ------- 0 5.1 3.0 9 38
+ 1.500573 5 6 tcp 1040 ------- 0 5.1 3.0 10 39
- 1.500573 5 6 tcp 1040 ------- 0 5.1 3.0 8 37
r 1.500575 6 5 tcp 1040 ------- 0 0.0 5.0 7 28
h 1.500575 5 6 ack 40 ------- 0 5.0 0.0 7 44
+ 1.500743 5 6 tcp 1040 ------- 0 5.1 3.0 11 40
+ 1.500743 5 6 tcp 1040 ------- 0 5.1 3.0 12 41
- 1.500743 5 6 tcp 1040 ------- 0 5.1 3.0 9 38
r 1.500745 6 5 tcp 1040 ------- 0 0.0 5.0 8 29
h 1.500745 5 6 ack 40 ------- 0 5.0 0.0 8 45
+ 1.500914 5 6 tcp 1040 ------- 0 5.1 3.0 13 42
+ 1.500914 5 6 tcp 1040 ------- 0 5.1 3.0 14 43
- 1.500914 5 6 tcp 1040 ------- 0 5.1 3.0 10 39
r 1.500916 6 5 tcp 1040 ------- 0 0.0 5.0 9 30
h 1.500916 5 6 ack 40 ------- 0 5.0 0.0 9 46
- 1.501084 5 6 tcp 1040 ------- 0 5.1 3.0 11 40
r 1.501087 6 5 tcp 1040 ------- 0 0.0 5.0 10 31
h 1.501087 5 6 ack 40 ------- 0 5.0 0.0 10 47
- 1.501255 5 6 tcp 1040 ------- 0 5.1 3.0 12 41
r 1.501257 6 5 tcp 1040 ------- 0 0.0 5.0 11 32
h 1.501257 5 6 ack 40 ------- 0 5.0 0.0 11 48
- 1.501426 5 6 tcp 1040 ------- 0 5.1 3.0 13 42
r 1.501428 6 5 tcp 1040 ------- 0 0.0 5.0 12 33
h 1.501428 5 6 ack 40 ------- 0 5.0 0.0 12 49
- 1.501596 5 6 tcp 1040 ------- 0 5.1 3.0 14 43
r 1.501598 6 5 tcp 1040 ------- 0 0.0 5.0 13 34
h 1.501598 5 6 ack 40 ------- 0 5.0 0.0 13 50
r 1.501769 6 5 tcp 1040 ------- 0 0.0 5.0 14 35
h 1.501769 5 6 ack 40 ------- 0 5.0 0.0 14 51
+ 1.600575 5 6 ack 40 ------- 0 5.0 0.0 7 44
- 1.600575 5 6 ack 40 ------- 0 5.0 0.0 7 44
r 1.600575 6 3 tcp 1040 ------- 0 5.1 3.0 7 36
h 1.600575 3 6 ack 40 ------- 0 3.0 5.1 7 52
+ 1.600745 5 6 ack 40 ------- 0 5.0 0.0 8 45
- 1.600745 5 6 ack 40 ------- 0 5.0 0.0 8 45
r 1.600745 6 3 tcp 1040 ------- 0 5.1 3.0 8 37
h 1.600745 3 6 ack 40 ------- 0 3.0 5.1 8 53
+ 1.600916 5 6 ack 40 ------- 0 5.0 0.0 9 46
- 1.600916 5 6 ack 40 ------- 0 5.0 0.0 9 46
r 1.600916 6 3 tcp 1040 ------- 0 5.1 3.0 9 38
h 1.600916 3 6 ack 40 ------- 0 3.0 5.1 9 54
+ 1.601087 5 6 ack 40 ------- 0 5.0 0.0 10 47
- 1.601087 5 6 ack 40 ------- 0 5.0 0.0 10 47
r 1.601087 6 3 tcp 1040 ------- 0 5.1 3.0 10 39
h 1.601087 3 6 ack 40 ------- 0 3.0 5.1 10 55
+ 1.601257 5 6 ack 40 ------- 0 5.0 0.0 11 48
- 1.601257 5 6 ack 40 ------- 0 5.0 0.0 11 48
r 1.601257 6 3 tcp 1040 ------- 0 5.1 3.0 11 40
h 1.601257 3 6 ack 40 ------- 0 3.0 5.1 11 56
+ 1.601428 5 6 ack 40 ------- 0 5.0 0.0 12 49
- 1.601428 5 6 ack 40 ------- 0 5.0 0.0 12 49
r 1.601428 6 3 tcp 1040 ------- 0 5.1 3.0 12 41
h 1.601428 3 6 ack 40 ------- 0 3.0 5.1 12 57
+ 1.601598 5 6 ack 40 ------- 0 5.0 0.0 13 50
- 1.601598 5 6 ack 40 ------- 0 5.0 0.0 13 50
r 1.601598 6 3 tcp 1040 ------- 0 5.1 3.0 13 42
h 1.601598 3 6 ack 40 ------- 0 3.0 5.1 13 58
+ 1.601769 5 6 ack 40 ------- 0 5.0 0.0 14 51
- 1.601769 5 6 ack 40 ------- 0 5.0 0.0 14 51
r 1.601769 6 3 tcp 1040 ------- 0 5.1 3.0 14 43
h 1.601769 3 6 ack 40 ------- 0 3.0 5.1 14 59
+ 1.700575 3 6 ack 40 ------- 0 3.0 5.1 7 52
- 1.700575 3 6 ack 40 ------- 0 3.0 5.1 7 52
r 1.700589 6 0 ack 40 ------- 0 5.0 0.0 7 44
h 1.700589 0 6 tcp 1040 ------- 0 0.0 5.0 15 60
h 1.700589 0 6 tcp 1040 ------- 0 0.0 5.0 16 61
+ 1.700745 3 6 ack 40 ------- 0 3.0 5.1 8 53
- 1.700745 3 6 ack 40 ------- 0 3.0 5.1 8 53
r 1.70076 6 0 ack 40 ------- 0 5.0 0.0 8 45
h 1.70076 0 6 tcp 1040 ------- 0 0.0 5.0 17 62
h 1.70076 0 6 tcp 1040 ------- 0 0.0 5.0 18 63
+ 1.700916 3 6 ack 40 ------- 0 3.0 5.1 9 54
- 1.700916 3 6 ack 40 ------- 0 3.0 5.1 9 54
r 1.70093 6 0 ack 40 ------- 0 5.0 0.0 9 46
h 1.70093 0 6 tcp 1040 ------- 0 0.0 5.0 19 64
h 1.70093 0 6 tcp 1040 ------- 0 0.0 5.0 20 65
+ 1.701087 3 6 ack 40 ------- 0 3.0 5.1 10 55
- 1.701087 3 6 ack 40 ------- 0 3.0 5.1 10 55
r 1.701101 6 0 ack 40 ------- 0 5.0 0.0 10 47
h 1.701101 0 6 tcp 1040 ------- 0 0.0 5.0 21 66
h 1.701101 0 6 tcp 1040 ------- 0 0.0 5.0 22 67
+ 1.701257 3 6 ack 40 ------- 0 3.0 5.1 11 56
- 1.701257 3 6 ack 40 ------- 0 3.0 5.1 11 56
r 1.701271 6 0 ack 40 ------- 0 5.0 0.0 11 48
h 1.701271 0 6 tcp 1040 ------- 0 0.0 5.0 23 68
h 1.701271 0 6 tcp 1040 ------- 0 0.0 5.0 24 69
+ 1.701428 3 6 ack 40 ------- 0 3.0 5.1 12 57
- 1.701428 3 6 ack 40 ------- 0 3.0 5.1 12 57
r 1.701442 6 0 ack 40 ------- 0 5.0 0.0 12 49
h 1.701442 0 6 tcp 1040 ------- 0 0.0 5.0 25 70
h 1.701442 0 6 tcp 1040 ------- 0 0.0 5.0 26 71
+ 1.701598 3 6 ack 40 ------- 0 3.0 5.1 13 58
- 1.701598 3 6 ack 40 ------- 0 3.0 5.1 13 58
r 1.701612 6 0 ack 40 ------- 0 5.0 0.0 13 50
h 1.701612 0 6 tcp 1040 ------- 0 0.0 5.0 27 72
h 1.701612 0 6 tcp 1040 ------- 0 0.0 5.0 28 73
+ 1.701769 3 6 ack 40 ------- 0 3.0 5.1 14 59
- 1.701769 3 6 ack 40 ------- 0 3.0 5.1 14 59
r 1.701783 6 0 ack 40 ------- 0 5.0 0.0 14 51
h 1.701783 0 6 tcp 1040 ------- 0 0.0 5.0 29 74
h 1.701783 0 6 tcp 1040 ------- 0 0.0 5.0 30 75
+ 1.800589 0 6 tcp 1040 ------- 0 0.0 5.0 15 60
- 1.800589 0 6 tcp 1040 ------- 0 0.0 5.0 15 60
+ 1.800589 0 6 tcp 1040 ------- 0 0.0 5.0 16 61
r 1.800589 6 5 ack 40 ------- 0 3.0 5.1 7 52
h 1.800589 5 6 tcp 1040 ------- 0 5.1 3.0 15 76
h 1.800589 5 6 tcp 1040 ------- 0 5.1 3.0 16 77
+ 1.80076 0 6 tcp 1040 ------- 0 0.0 5.0 17 62
+ 1.80076 0 6 tcp 1040 ------- 0 0.0 5.0 18 63
r 1.80076 6 5 ack 40 ------- 0 3.0 5.1 8 53
h 1.80076 5 6 tcp 1040 ------- 0 5.1 3.0 17 78
h 1.80076 5 6 tcp 1040 ------- 0 5.1 3.0 18 79
- 1.80076 0 6 tcp 1040 ------- 0 0.0 5.0 16 61
+ 1.80093 0 6 tcp 1040 ------- 0 0.0 5.0 19 64
+ 1.80093 0 6 tcp 1040 ------- 0 0.0 5.0 20 65
r 1.80093 6 5 ack 40 ------- 0 3.0 5.1 9 54
h 1.80093 5 6 tcp 1040 ------- 0 5.1 3.0 19 80
h 1.80093 5 6 tcp 1040 ------- 0 5.1 3.0 20 81
- 1.80093 0 6 tcp 1040 ------- 0 0.0 5.0 17 62
+ 1.801101 0 6 tcp 1040 ------- 0 0.0 5.0 21 66
+ 1.801101 0 6 tcp 1040 ------- 0 0.0 5.0 22 67
r 1.801101 6 5 ack 40 ------- 0 3.0 5.1 10 55
h 1.801101 5 6 tcp 1040 ------- 0 5.1 3.0 21 82
h 1.801101 5 6 tcp 1040 ------- 0 5.1 3.0 22 83
- 1.801101 0 6 tcp 1040 ------- 0 0.0 5.0 18 63
+ 1.801271 0 6 tcp 1040 ------- 0 0.0 5.0 23 68
+ 1.801271 0 6 tcp 1040 ------- 0 0.0 5.0 24 69
r 1.801271 6 5 ack 40 ------- 0 3.0 5.1 11 56
h 1.801271 5 6 tcp 1040 ------- 0 5.1 3.0 23 84
h 1.801271 5 6 tcp 1040 ------- 0 5.1 3.0 24 85
- 1.801271 0 6 tcp 1040 ------- 0 0.0 5.0 19 64
+ 1.801442 0 6 tcp 1040 ------- 0 0.0 5.0 25 70
+ 1.801442 0 6 tcp 1040 ------- 0 0.0 5.0 26 71
r 1.801442 6 5 ack 40 ------- 0 3.0 5.1 12 57
h 1.801442 5 6 tcp 1040 ------- 0 5.1 3.0 25 86
h 1.801442 5 6 tcp 1040 ------- 0 5.1 3.0 26 87
- 1.801442 0 6 tcp 1040 ------- 0 0.0 5.0 20 65
+ 1.801612 0 6 tcp 1040 ------- 0 0.0 5.0 27 72
+ 1.801612 0 6 tcp 1040 ------- 0 0.0 5.0 28 73
r 1.801612 6 5 ack 40 ------- 0 3.0 5.1 13 58
h 1.801612 5 6 tcp 1040 ------- 0 5.1 3.0 27 88
h 1.801612 5 6 tcp 1040 ------- 0 5.1 3.0 28 89
- 1.801612 0 6 tcp 1040 ------- 0 0.0 5.0 21 66
+ 1.801783 0 6 tcp 1040 ------- 0 0.0 5.0 29 74
+ 1.801783 0 6 tcp 1040 ------- 0 0.0 5.0 30 75
r 1.801783 6 5 ack 40 ------- 0 3.0 5.1 14 59
h 1.801783 5 6 tcp 1040 ------- 0 5.1 3.0 29 90
h 1.801783 5 6 tcp 1040 ------- 0 5.1 3.0 30 91
- 1.801783 0 6 tcp 1040 ------- 0 0.0 5.0 22 67
- 1.801954 0 6 tcp 1040 ------- 0 0.0 5.0 23 68
- 1.802124 0 6 tcp 1040 ------- 0 0.0 5.0 24 69
- 1.802295 0 6 tcp 1040 ------- 0 0.0 5.0 25 70
- 1.802465 0 6 tcp 1040 ------- 0 0.0 5.0 26 71
- 1.802636 0 6 tcp 1040 ------- 0 0.0 5.0 27 72
- 1.802806 0 6 tcp 1040 ------- 0 0.0 5.0 28 73
- 1.802977 0 6 tcp 1040 ------- 0 0.0 5.0 29 74
- 1.803148 0 6 tcp 1040 ------- 0 0.0 5.0 30 75
+ 1.900589 5 6 tcp 1040 ------- 0 5.1 3.0 15 76
- 1.900589 5 6 tcp 1040 ------- 0 5.1 3.0 15 76
+ 1.900589 5 6 tcp 1040 ------- 0 5.1 3.0 16 77
+ 1.90076 5 6 tcp 1040 ------- 0 5.1 3.0 17 78
+ 1.90076 5 6 tcp 1040 ------- 0 5.1 3.0 18 79
- 1.90076 5 6 tcp 1040 ------- 0 5.1 3.0 16 77
r 1.900762 6 5 tcp 1040 ------- 0 0.0 5.0 15 60
h 1.900762 5 6 ack 40 ------- 0 5.0 0.0 15 92
+ 1.90093 5 6 tcp 1040 ------- 0 5.1 3.0 19 80
+ 1.90093 5 6 tcp 1040 ------- 0 5.1 3.0 20 81
- 1.90093 5 6 tcp 1040 ------- 0 5.1 3.0 17 78
r 1.900932 6 5 tcp 1040 ------- 0 0.0 5.0 16 61
h 1.900932 5 6 ack 40 ------- 0 5.0 0.0 16 93
+ 1.901101 5 6 tcp 1040 ------- 0 5.1 3.0 21 82
+ 1.901101 5 6 tcp 1040 ------- 0 5.1 3.0 22 83
- 1.901101 5 6 tcp 1040 ------- 0 5.1 3.0 18 79
r 1.901103 6 5 tcp 1040 ------- 0 0.0 5.0 17 62
h 1.901103 5 6 ack 40 ------- 0 5.0 0.0 17 94
+ 1.901271 5 6 tcp 1040 ------- 0 5.1 3.0 23 84
+ 1.901271 5 6 tcp 1040 ------- 0 5.1 3.0 24 85
- 1.901271 5 6 tcp 1040 ------- 0 5.1 3.0 19 80
r 1.901273 6 5 tcp 1040 ------- 0 0.0 5.0 18 63
h 1.901273 5 6 ack 40 ------- 0 5.0 0.0 18 95
+ 1.901442 5 6 tcp 1040 ------- 0 5.1 3.0 25 86
+ 1.901442 5 6 tcp 1040 ------- 0 5.1 3.0 26 87
- 1.901442 5 6 tcp 1040 ------- 0 5.1 3.0 20 81
r 1.901444 6 5 tcp 1040 ------- 0 0.0 5.0 19 64
h 1.901444 5 6 ack 40 ------- 0 5.0 0.0 19 96
+ 1.901612 5 6 tcp 1040 ------- 0 5.1 3.0 27 88
+ 1.901612 5 6 tcp 1040 ------- 0 5.1 3.0 28 89
- 1.901612 5 6 tcp 1040 ------- 0 5.1 3.0 21 82
r 1.901615 6 5 tcp 1040 ------- 0 0.0 5.0 20 65
h 1.901615 5 6 ack 40 ------- 0 5.0 0.0 20 97
+ 1.901783 5 6 tcp 1040 ------- 0 5.1 3.0 29 90
+ 1.901783 5 6 tcp 1040 ------- 0 5.1 3.0 30 91
- 1.901783 5 6 tcp 1040 ------- 0 5.1 3.0 22 83
r 1.901785 6 5 tcp 1040 ------- 0 0.0 5.0 21 66
h 1.901785 5 6 ack 40 ------- 0 5.0 0.0 21 98
- 1.901954 5 6 tcp 1040 ------- 0 5.1 3.0 23 84
r 1.901956 6 5 tcp 1040 ------- 0 0.0 5.0 22 67
h 1.901956 5 6 ack 40 ------- 0 5.0 0.0 22 99
- 1.902124 5 6 tcp 1040 ------- 0 5.1 3.0 24 85
r 1.902126 6 5 tcp 1040 ------- 0 0.0 5.0 23 68
h 1.902126 5 6 ack 40 ------- 0 5.0 0.0 23 100
- 1.902295 5 6 tcp 1040 ------- 0 5.1 3.0 25 86
r 1.902297 6 5 tcp 1040 ------- 0 0.0 5.0 24 69
h 1.902297 5 6 ack 40 ------- 0 5.0 0.0 24 101
- 1.902465 5 6 tcp 1040 ------- 0 5.1 3.0 26 87
r 1.902467 6 5 tcp 1040 ------- 0 0.0 5.0 25 70
h 1.902467 5 6 ack 40 ------- 0 5.0 0.0 25 102
- 1.902636 5 6 tcp 1040 ------- 0 5.1 3.0 27 88
r 1.902638 6 5 tcp 1040 ------- 0 0.0 5.0 26 71
h 1.902638 5 6 ack 40 ------- 0 5.0 0.0 26 103
- 1.902806 5 6 tcp 1040 ------- 0 5.1 3.0 28 89
r 1.902808 6 5 tcp 1040 ------- 0 0.0 5.0 27 72
h 1.902808 5 6 ack 40 ------- 0 5.0 0.0 27 104
- 1.902977 5 6 tcp 1040 ------- 0 5.1 3.0 29 90
r 1.902979 6 5 tcp 1040 ------- 0 0.0 5.0 28 73
h 1.902979 5 6 ack 40 ------- 0 5.0 0.0 28 105
- 1.903148 5 6 tcp 1040 ------- 0 5.1 3.0 30 91
r 1.90315 6 5 tcp 1040 ------- 0 0.0 5.0 29 74
h 1.90315 5 6 ack 40 ------- 0 5.0 0.0 29 106
r 1.90332 6 5 tcp 1040 ------- 0 0.0 5.0 30 75
h 1.90332 5 6 ack 40 ------- 0 5.0 0.0 30 107
+ 2.000762 5 6 ack 40 ------- 0 5.0 0.0 15 92
- 2.000762 5 6 ack 40 ------- 0 5.0 0.0 15 92
r 2.000762 6 3 tcp 1040 ------- 0 5.1 3.0 15 76
h 2.000762 3 6 ack 40 ------- 0 3.0 5.1 15 108
+ 2.000932 5 6 ack 40 ------- 0 5.0 0.0 16 93
- 2.000932 5 6 ack 40 ------- 0 5.0 0.0 16 93
r 2.000932 6 3 tcp 1040 ------- 0 5.1 3.0 16 77
h 2.000932 3 6 ack 40 ------- 0 3.0 5.1 16 109
+ 2.001103 5 6 ack 40 ------- 0 5.0 0.0 17 94
- 2.001103 5 6 ack 40 ------- 0 5.0 0.0 17 94
r 2.001103 6 3 tcp 1040 ------- 0 5.1 3.0 17 78
h 2.001103 3 6 ack 40 ------- 0 3.0 5.1 17 110
+ 2.001273 5 6 ack 40 ------- 0 5.0 0.0 18 95
- 2.001273 5 6 ack 40 ------- 0 5.0 0.0 18 95
r 2.001273 6 3 tcp 1040 ------- 0 5.1 3.0 18 79
h 2.001273 3 6 ack 40 ------- 0 3.0 5.1 18 111
+ 2.001444 5 6 ack 40 ------- 0 5.0 0.0 19 96
- 2.001444 5 6 ack 40 ------- 0 5.0 0.0 19 96
r 2.001444 6 3 tcp 1040 ------- 0 5.1 3.0 19 80
h 2.001444 3 6 ack 40 ------- 0 3.0 5.1 19 112
+ 2.001615 5 6 ack 40 ------- 0 5.0 0.0 20 97
- 2.001615 5 6 ack 40 ------- 0 5.0 0.0 20 97
r 2.001615 6 3 tcp 1040 ------- 0 5.1 3.0 20 81
h 2.001615 3 6 ack 40 ------- 0 3.0 5.1 20 113
+ 2.001785 5 6 ack 40 ------- 0 5.0 0.0 21 98
- 2.001785 5 6 ack 40 ------- 0 5.0 0.0 21 98
r 2.001785 6 3 tcp 1040 ------- 0 5.1 3.0 21 82
h 2.001785 3 6 ack 40 ------- 0 3.0 5.1 21 114
+ 2.001956 5 6 ack 40 ------- 0 5.0 0.0 22 99
- 2.001956 5 6 ack 40 ------- 0 5.0 0.0 22 99
r 2.001956 6 3 tcp 1040 ------- 0 5.1 3.0 22 83
h 2.001956 3 6 ack 40 ------- 0 3.0 5.1 22 115
+ 2.002126 5 6 ack 40 ------- 0 5.0 0.0 23 100
- 2.002126 5 6 ack 40 ------- 0 5.0 0.0 23 100
r 2.002126 6 3 tcp 1040 ------- 0 5.1 3.0 23 84
h 2.002126 3 6 ack 40 ------- 0 3.0 5.1 23 116
+ 2.002297 5 6 ack 40 ------- 0 5.0 0.0 24 101
- 2.002297 5 6 ack 40 ------- 0 5.0 0.0 24 101
r 2.002297 6 3 tcp 1040 ------- 0 5.1 3.0 24 85
h 2.002297 3 6 ack 40 ------- 0 3.0 5.1 24 117
+ 2.002467 5 6 ack 40 ------- 0 5.0 0.0 25 102
- 2.002467 5 6 ack 40 ------- 0 5.0 0.0 25 102
r 2.002467 6 3 tcp 1040 ------- 0 5.1 3.0 25 86
h 2.002467 3 6 ack 40 ------- 0 3.0 5.1 25 118
+ 2.002638 5 6 ack 40 ------- 0 5.0 0.0 26 103
- 2.002638 5 6 ack 40 ------- 0 5.0 0.0 26 103
r 2.002638 6 3 tcp 1040 ------- 0 5.1 3.0 26 87
h 2.002638 3 6 ack 40 ------- 0 3.0 5.1 26 119
+ 2.002808 5 6 ack 40 ------- 0 5.0 0.0 27 104
- 2.002808 5 6 ack 40 ------- 0 5.0 0.0 27 104
r 2.002808 6 3 tcp 1040 ------- 0 5.1 3.0 27 88
h 2.002808 3 6 ack 40 ------- 0 3.0 5.1 27 120
+ 2.002979 5 6 ack 40 ------- 0 5.0 0.0 28 105
- 2.002979 5 6 ack 40 ------- 0 5.0 0.0 28 105
r 2.002979 6 3 tcp 1040 ------- 0 5.1 3.0 28 89
h 2.002979 3 6 ack 40 ------- 0 3.0 5.1 28 121
+ 2.00315 5 6 ack 40 ------- 0 5.0 0.0 29 106
- 2.00315 5 6 ack 40 ------- 0 5.0 0.0 29 106
r 2.00315 6 3 tcp 1040 ------- 0 5.1 3.0 29 90
h 2.00315 3 6 ack 40 ------- 0 3.0 5.1 29 122
+ 2.00332 5 6 ack 40 ------- 0 5.0 0.0 30 107
- 2.00332 5 6 ack 40 ------- 0 5.0 0.0 30 107
r 2.00332 6 3 tcp 1040 ------- 0 5.1 3.0 30 91
h 2.00332 3 6 ack 40 ------- 0 3.0 5.1 30 123
+ 2.100762 3 6 ack 40 ------- 0 3.0 5.1 15 108
- 2.100762 3 6 ack 40 ------- 0 3.0 5.1 15 108
r 2.100776 6 0 ack 40 ------- 0 5.0 0.0 15 92
h 2.100776 0 6 tcp 1040 ------- 0 0.0 5.0 31 124
h 2.100776 0 6 tcp 1040 ------- 0 0.0 5.0 32 125
+ 2.100932 3 6 ack 40 ------- 0 3.0 5.1 16 109
- 2.100932 3 6 ack 40 ------- 0 3.0 5.1 16 109
r 2.100947 6 0 ack 40 ------- 0 5.0 0.0 16 93
h 2.100947 0 6 tcp 1040 ------- 0 0.0 5.0 33 126
h 2.100947 0 6 tcp 1040 ------- 0 0.0 5.0 34 127
+ 2.101103 3 6 ack 40 ------- 0 3.0 5.1 17 110
- 2.101103 3 6 ack 40 ------- 0 3.0 5.1 17 110
r 2.101117 6 0 ack 40 ------- 0 5.0 0.0 17 94
h 2.101117 0 6 tcp 1040 ------- 0 0.0 5.0 35 128
h 2.101117 0 6 tcp 1040 ------- 0 0.0 5.0 36 129
+ 2.101273 3 6 ack 40 ------- 0 3.0 5.1 18 111
- 2.101273 3 6 ack 40 ------- 0 3.0 5.1 18 111
r 2.101288 6 0 ack 40 ------- 0 5.0 0.0 18 95
h 2.101288 0 6 tcp 1040 ------- 0 0.0 5.0 37 130
h 2.101288 0 6 tcp 1040 ------- 0 0.0 5.0 38 131
+ 2.101444 3 6 ack 40 ------- 0 3.0 5.1 19 112
- 2.101444 3 6 ack 40 ------- 0 3.0 5.1 19 112
r 2.101458 6 0 ack 40 ------- 0 5.0 0.0 19 96
h 2.101458 0 6 tcp 1040 ------- 0 0.0 5.0 39 132
+ 2.101615 3 6 ack 40 ------- 0 3.0 5.1 20 113
- 2.101615 3 6 ack 40 ------- 0 3.0 5.1 20 113
r 2.101629 6 0 ack 40 ------- 0 5.0 0.0 20 97
h 2.101629 0 6 tcp 1040 ------- 0 0.0 5.0 40 133
+ 2.101785 3 6 ack 40 ------- 0 3.0 5.1 21 114
- 2.101785 3 6 ack 40 ------- 0 3.0 5.1 21 114
r 2.101799 6 0 ack 40 ------- 0 5.0 0.0 21 98
h 2.101799 0 6 tcp 1040 ------- 0 0.0 5.0 41 134
+ 2.101956 3 6 ack 40 ------- 0 3.0 5.1 22 115
- 2.101956 3 6 ack 40 ------- 0 3.0 5.1 22 115
r 2.10197 6 0 ack 40 ------- 0 5.0 0.0 22 99
h 2.10197 0 6 tcp 1040 ------- 0 0.0 5.0 42 135
+ 2.102126 3 6 ack 40 ------- 0 3.0 5.1 23 116
- 2.102126 3 6 ack 40 ------- 0 3.0 5.1 23 116
r 2.10214 6 0 ack 40 ------- 0 5.0 0.0 23 100
h 2.10214 0 6 tcp 1040 ------- 0 0.0 5.0 43 136
+ 2.102297 3 6 ack 40 ------- 0 3.0 5.1 24 117
- 2.102297 3 6 ack 40 ------- 0 3.0 5.1 24 117
r 2.102311 6 0 ack 40 ------- 0 5.0 0.0 24 101
h 2.102311 0 6 tcp 1040 ------- 0 0.0 5.0 44 137
+ 2.102467 3 6 ack 40 ------- 0 3.0 5.1 25 118
- 2.102467 3 6 ack 40 ------- 0 3.0 5.1 25 118
r 2.102482 6 0 ack 40 ------- 0 5.0 0.0 25 102
h 2.102482 0 6 tcp 1040 ------- 0 0.0 5.0 45 138
+ 2.102638 3 6 ack 40 ------- 0 3.0 5.1 26 119
- 2.102638 3 6 ack 40 ------- 0 3.0 5.1 26 119
r 2.102652 6 0 ack 40 ------- 0 5.0 0.0 26 103
h 2.102652 0 6 tcp 1040 ------- 0 0.0 5.0 46 139
+ 2.102808 3 6 ack 40 ------- 0 3.0 5.1 27 120
- 2.102808 3 6 ack 40 ------- 0 3.0 5.1 27 120
r 2.102823 6 0 ack 40 ------- 0 5.0 0.0 27 104
h 2.102823 0 6 tcp 1040 ------- 0 0.0 5.0 47 140
+ 2.102979 3 6 ack 40 ------- 0 3.0 5.1 28 121
- 2.102979 3 6 ack 40 ------- 0 3.0 5.1 28 121
r 2.102993 6 0 ack 40 ------- 0 5.0 0.0 28 105
h 2.102993 0 6 tcp 1040 ------- 0 0.0 5.0 48 141
+ 2.10315 3 6 ack 40 ------- 0 3.0 5.1 29 122
- 2.10315 3 6 ack 40 ------- 0 3.0 5.1 29 122
r 2.103164 6 0 ack 40 ------- 0 5.0 0.0 29 106
h 2.103164 0 6 tcp 1040 ------- 0 0.0 5.0 49 142
+ 2.10332 3 6 ack 40 ------- 0 3.0 5.1 30 123
- 2.10332 3 6 ack 40 ------- 0 3.0 5.1 30 123
r 2.103334 6 0 ack 40 ------- 0 5.0 0.0 30 107
h 2.103334 0 6 tcp 1040 ------- 0 0.0 5.0 50 143
+ 2.200776 0 6 tcp 1040 ------- 0 0.0 5.0 31 124
- 2.200776 0 6 tcp 1040 ------- 0 0.0 5.0 31 124
+ 2.200776 0 6 tcp 1040 ------- 0 0.0 5.0 32 125
r 2.200776 6 5 ack 40 ------- 0 3.0 5.1 15 108
h 2.200776 5 6 tcp 1040 ------- 0 5.1 3.0 31 144
h 2.200776 5 6 tcp 1040 ------- 0 5.1 3.0 32 145
+ 2.200947 0 6 tcp 1040 ------- 0 0.0 5.0 33 126
+ 2.200947 0 6 tcp 1040 ------- 0 0.0 5.0 34 127
r 2.200947 6 5 ack 40 ------- 0 3.0 5.1 16 109
h 2.200947 5 6 tcp 1040 ------- 0 5.1 3.0 33 146
h 2.200947 5 6 tcp 1040 ------- 0 5.1 3.0 34 147
- 2.200947 0 6 tcp 1040 ------- 0 0.0 5.0 32 125
- 2.201117 0 6 tcp 1040 ------- 0 0.0 5.0 33 126
+ 2.201117 0 6 tcp 1040 ------- 0 0.0 5.0 35 128
+ 2.201117 0 6 tcp 1040 ------- 0 0.0 5.0 36 129
r 2.201117 6 5 ack 40 ------- 0 3.0 5.1 17 110
h 2.201117 5 6 tcp 1040 ------- 0 5.1 3.0 35 148
h 2.201117 5 6 tcp 1040 ------- 0 5.1 3.0 36 149
- 2.201288 0 6 tcp 1040 ------- 0 0.0 5.0 34 127
+ 2.201288 0 6 tcp 1040 ------- 0 0.0 5.0 37 130
+ 2.201288 0 6 tcp 1040 ------- 0 0.0 5.0 38 131
r 2.201288 6 5 ack 40 ------- 0 3.0 5.1 18 111
h 2.201288 5 6 tcp 1040 ------- 0 5.1 3.0 37 150
h 2.201288 5 6 tcp 1040 ------- 0 5.1 3.0 38 151
- 2.201458 0 6 tcp 1040 ------- 0 0.0 5.0 35 128
+ 2.201458 0 6 tcp 1040 ------- 0 0.0 5.0 39 132
r 2.201458 6 5 ack 40 ------- 0 3.0 5.1 19 112
h 2.201458 5 6 tcp 1040 ------- 0 5.1 3.0 39 152
- 2.201629 0 6 tcp 1040 ------- 0 0.0 5.0 36 129
+ 2.201629 0 6 tcp 1040 ------- 0 0.0 5.0 40 133
r 2.201629 6 5 ack 40 ------- 0 3.0 5.1 20 113
h 2.201629 5 6 tcp 1040 ------- 0 5.1 3.0 40 153
- 2.201799 0 6 tcp 1040 ------- 0 0.0 5.0 37 130
+ 2.201799 0 6 tcp 1040 ------- 0 0.0 5.0 41 134
r 2.201799 6 5 ack 40 ------- 0 3.0 5.1 21 114
h 2.201799 5 6 tcp 1040 ------- 0 5.1 3.0 41 154
- 2.20197 0 6 tcp 1040 ------- 0 0.0 5.0 38 131
+ 2.20197 0 6 tcp 1040 ------- 0 0.0 5.0 42 135
r 2.20197 6 5 ack 40 ------- 0 3.0 5.1 22 115
h 2.20197 5 6 tcp 1040 ------- 0 5.1 3.0 42 155
- 2.20214 0 6 tcp 1040 ------- 0 0.0 5.0 39 132
+ 2.20214 0 6 tcp 1040 ------- 0 0.0 5.0 43 136
r 2.20214 6 5 ack 40 ------- 0 3.0 5.1 23 116
h 2.20214 5 6 tcp 1040 ------- 0 5.1 3.0 43 156
- 2.202311 0 6 tcp 1040 ------- 0 0.0 5.0 40 133
+ 2.202311 0 6 tcp 1040 ------- 0 0.0 5.0 44 137
r 2.202311 6 5 ack 40 ------- 0 3.0 5.1 24 117
h 2.202311 5 6 tcp 1040 ------- 0 5.1 3.0 44 157
- 2.202482 0 6 tcp 1040 ------- 0 0.0 5.0 41 134
+ 2.202482 0 6 tcp 1040 ------- 0 0.0 5.0 45 138
r 2.202482 6 5 ack 40 ------- 0 3.0 5.1 25 118
h 2.202482 5 6 tcp 1040 ------- 0 5.1 3.0 45 158
- 2.202652 0 6 tcp 1040 ------- 0 0.0 5.0 42 135
+ 2.202652 0 6 tcp 1040 ------- 0 0.0 5.0 46 139
r 2.202652 6 5 ack 40 ------- 0 3.0 5.1 26 119
h 2.202652 5 6 tcp 1040 ------- 0 5.1 3.0 46 159
- 2.202823 0 6 tcp 1040 ------- 0 0.0 5.0 43 136
+ 2.202823 0 6 tcp 1040 ------- 0 0.0 5.0 47 140
r 2.202823 6 5 ack 40 ------- 0 3.0 5.1 27 120
h 2.202823 5 6 tcp 1040 ------- 0 5.1 3.0 47 160
- 2.202993 0 6 tcp 1040 ------- 0 0.0 5.0 44 137
+ 2.202993 0 6 tcp 1040 ------- 0 0.0 5.0 48 141
r 2.202993 6 5 ack 40 ------- 0 3.0 5.1 28 121
h 2.202993 5 6 tcp 1040 ------- 0 5.1 3.0 48 161
- 2.203164 0 6 tcp 1040 ------- 0 0.0 5.0 45 138
+ 2.203164 0 6 tcp 1040 ------- 0 0.0 5.0 49 142
r 2.203164 6 5 ack 40 ------- 0 3.0 5.1 29 122
h 2.203164 5 6 tcp 1040 ------- 0 5.1 3.0 49 162
- 2.203334 0 6 tcp 1040 ------- 0 0.0 5.0 46 139
+ 2.203334 0 6 tcp 1040 ------- 0 0.0 5.0 50 143
r 2.203334 6 5 ack 40 ------- 0 3.0 5.1 30 123
h 2.203334 5 6 tcp 1040 ------- 0 5.1 3.0 50 163
- 2.203505 0 6 tcp 1040 ------- 0 0.0 5.0 47 140
- 2.203676 0 6 tcp 1040 ------- 0 0.0 5.0 48 141
- 2.203846 0 6 tcp 1040 ------- 0 0.0 5.0 49 142
- 2.204017 0 6 tcp 1040 ------- 0 0.0 5.0 50 143
+ 2.300776 5 6 tcp 1040 ------- 0 5.1 3.0 31 144
- 2.300776 5 6 tcp 1040 ------- 0 5.1 3.0 31 144
+ 2.300776 5 6 tcp 1040 ------- 0 5.1 3.0 32 145
+ 2.300947 5 6 tcp 1040 ------- 0 5.1 3.0 33 146
+ 2.300947 5 6 tcp 1040 ------- 0 5.1 3.0 34 147
- 2.300947 5 6 tcp 1040 ------- 0 5.1 3.0 32 145
r 2.300949 6 5 tcp 1040 ------- 0 0.0 5.0 31 124
h 2.300949 5 6 ack 40 ------- 0 5.0 0.0 31 164
- 2.301117 5 6 tcp 1040 ------- 0 5.1 3.0 33 146
+ 2.301117 5 6 tcp 1040 ------- 0 5.1 3.0 35 148
+ 2.301117 5 6 tcp 1040 ------- 0 5.1 3.0 36 149
r 2.301119 6 5 tcp 1040 ------- 0 0.0 5.0 32 125
h 2.301119 5 6 ack 40 ------- 0 5.0 0.0 32 165
- 2.301288 5 6 tcp 1040 ------- 0 5.1 3.0 34 147
+ 2.301288 5 6 tcp 1040 ------- 0 5.1 3.0 37 150
+ 2.301288 5 6 tcp 1040 ------- 0 5.1 3.0 38 151
r 2.30129 6 5 tcp 1040 ------- 0 0.0 5.0 33 126
h 2.30129 5 6 ack 40 ------- 0 5.0 0.0 33 166
- 2.301458 5 6 tcp 1040 ------- 0 5.1 3.0 35 148
+ 2.301458 5 6 tcp 1040 ------- 0 5.1 3.0 39 152
r 2.30146 6 5 tcp 1040 ------- 0 0.0 5.0 34 127
h 2.30146 5 6 ack 40 ------- 0 5.0 0.0 34 167
- 2.301629 5 6 tcp 1040 ------- 0 5.1 3.0 36 149
+ 2.301629 5 6 tcp 1040 ------- 0 5.1 3.0 40 153
r 2.301631 6 5 tcp 1040 ------- 0 0.0 5.0 35 128
h 2.301631 5 6 ack 40 ------- 0 5.0 0.0 35 168
- 2.301799 5 6 tcp 1040 ------- 0 5.1 3.0 37 150
+ 2.301799 5 6 tcp 1040 ------- 0 5.1 3.0 41 154
r 2.301801 6 5 tcp 1040 ------- 0 0.0 5.0 36 129
h 2.301801 5 6 ack 40 ------- 0 5.0 0.0 36 169
- 2.30197 5 6 tcp 1040 ------- 0 5.1 3.0 38 151
+ 2.30197 5 6 tcp 1040 ------- 0 5.1 3.0 42 155
r 2.301972 6 5 tcp 1040 ------- 0 0.0 5.0 37 130
h 2.301972 5 6 ack 40 ------- 0 5.0 0.0 37 170
- 2.30214 5 6 tcp 1040 ------- 0 5.1 3.0 39 152
+ 2.30214 5 6 tcp 1040 ------- 0 5.1 3.0 43 156
r 2.302143 6 5 tcp 1040 ------- 0 0.0 5.0 38 131
h 2.302143 5 6 ack 40 ------- 0 5.0 0.0 38 171
- 2.302311 5 6 tcp 1040 ------- 0 5.1 3.0 40 153
+ 2.302311 5 6 tcp 1040 ------- 0 5.1 3.0 44 157
r 2.302313 6 5 tcp 1040 ------- 0 0.0 5.0 39 132
h 2.302313 5 6 ack 40 ------- 0 5.0 0.0 39 172
- 2.302482 5 6 tcp 1040 ------- 0 5.1 3.0 41 154
+ 2.302482 5 6 tcp 1040 ------- 0 5.1 3.0 45 158
r 2.302484 6 5 tcp 1040 ------- 0 0.0 5.0 40 133
h 2.302484 5 6 ack 40 ------- 0 5.0 0.0 40 173
- 2.302652 5 6 tcp 1040 ------- 0 5.1 3.0 42 155
+ 2.302652 5 6 tcp 1040 ------- 0 5.1 3.0 46 159
r 2.302654 6 5 tcp 1040 ------- 0 0.0 5.0 41 134
h 2.302654 5 6 ack 40 ------- 0 5.0 0.0 41 174
- 2.302823 5 6 tcp 1040 ------- 0 5.1 3.0 43 156
+ 2.302823 5 6 tcp 1040 ------- 0 5.1 3.0 47 160
r 2.302825 6 5 tcp 1040 ------- 0 0.0 5.0 42 135
h 2.302825 5 6 ack 40 ------- 0 5.0 0.0 42 175
- 2.302993 5 6 tcp 1040 ------- 0 5.1 3.0 44 157
+ 2.302993 5 6 tcp 1040 ------- 0 5.1 3.0 48 161
r 2.302995 6 5 tcp 1040 ------- 0 0.0 5.0 43 136
h 2.302995 5 6 ack 40 ------- 0 5.0 0.0 43 176
- 2.303164 5 6 tcp 1040 ------- 0 5.1 3.0 45 158
+ 2.303164 5 6 tcp 1040 ------- 0 5.1 3.0 49 162
r 2.303166 6 5 tcp 1040 ------- 0 0.0 5.0 44 137