+ 0.1 0 5 ping 50000 ------- 0 0.0 4.0 -1 0
- 0.1 0 5 ping 50000 ------- 0 0.0 4.0 -1 0
+ 0.1 2 5 ping 30000 ------- 0 2.0 3.0 -1 1
- 0.1 2 5 ping 30000 ------- 0 2.0 3.0 -1 1
r 0.1034 2 5 ping 30000 ------- 0 2.0 3.0 -1 1
+ 0.1034 5 3 ping 30000 ------- 0 2.0 3.0 -1 1
- 0.1034 5 3 ping 30000 ------- 0 2.0 3.0 -1 1
r 0.105 0 5 ping 50000 ------- 0 0.0 4.0 -1 0
+ 0.105 5 4 ping 50000 ------- 0 0.0 4.0 -1 0
- 0.105 5 4 ping 50000 ------- 0 0.0 4.0 -1 0
r 0.1068 5 3 ping 30000 ------- 0 2.0 3.0 -1 1
+ 0.1068 3 5 ping 64 ------- 0 3.0 2.0 -1 2
- 0.1068 3 5 ping 64 ------- 0 3.0 2.0 -1 2
r 0.107805 3 5 ping 64 ------- 0 3.0 2.0 -1 2
+ 0.107805 5 2 ping 64 ------- 0 3.0 2.0 -1 2
- 0.107805 5 2 ping 64 ------- 0 3.0 2.0 -1 2
r 0.10881 5 2 ping 64 ------- 0 3.0 2.0 -1 2
+ 0.2 0 5 ping 50000 ------- 0 0.0 4.0 -1 3
- 0.2 0 5 ping 50000 ------- 0 0.0 4.0 -1 3
+ 0.2 2 5 ping 30000 ------- 0 2.0 3.0 -1 4
- 0.2 2 5 ping 30000 ------- 0 2.0 3.0 -1 4
r 0.2034 2 5 ping 30000 ------- 0 2.0 3.0 -1 4
+ 0.2034 5 3 ping 30000 ------- 0 2.0 3.0 -1 4
- 0.2034 5 3 ping 30000 ------- 0 2.0 3.0 -1 4
r 0.205 0 5 ping 50000 ------- 0 0.0 4.0 -1 3
+ 0.205 5 4 ping 50000 ------- 0 0.0 4.0 -1 3
r 0.2068 5 3 ping 30000 ------- 0 2.0 3.0 -1 4
+ 0.2068 3 5 ping 64 ------- 0 3.0 2.0 -1 5
- 0.2068 3 5 ping 64 ------- 0 3.0 2.0 -1 5
r 0.207805 3 5 ping 64 ------- 0 3.0 2.0 -1 5
+ 0.207805 5 2 ping 64 ------- 0 3.0 2.0 -1 5
- 0.207805 5 2 ping 64 ------- 0 3.0 2.0 -1 5
r 0.20881 5 2 ping 64 ------- 0 3.0 2.0 -1 5
+ 0.3 0 5 ping 50000 ------- 0 0.0 4.0 -1 6
- 0.3 0 5 ping 50000 ------- 0 0.0 4.0 -1 6
+ 0.3 2 5 ping 30000 ------- 0 2.0 3.0 -1 7
- 0.3 2 5 ping 30000 ------- 0 2.0 3.0 -1 7
r 0.3034 2 5 ping 30000 ------- 0 2.0 3.0 -1 7
+ 0.3034 5 3 ping 30000 ------- 0 2.0 3.0 -1 7
- 0.3034 5 3 ping 30000 ------- 0 2.0 3.0 -1 7
r 0.305 0 5 ping 50000 ------- 0 0.0 4.0 -1 6
+ 0.305 5 4 ping 50000 ------- 0 0.0 4.0 -1 6
d 0.305 5 4 ping 50000 ------- 0 0.0 4.0 -1 6
r 0.3068 5 3 ping 30000 ------- 0 2.0 3.0 -1 7
+ 0.3068 3 5 ping 64 ------- 0 3.0 2.0 -1 8
- 0.3068 3 5 ping 64 ------- 0 3.0 2.0 -1 8
r 0.307805 3 5 ping 64 ------- 0 3.0 2.0 -1 8
+ 0.307805 5 2 ping 64 ------- 0 3.0 2.0 -1 8
- 0.307805 5 2 ping 64 ------- 0 3.0 2.0 -1 8
r 0.30881 5 2 ping 64 ------- 0 3.0 2.0 -1 8
+ 0.4 0 5 ping 50000 ------- 0 0.0 4.0 -1 9
- 0.4 0 5 ping 50000 ------- 0 0.0 4.0 -1 9
+ 0.4 2 5 ping 30000 ------- 0 2.0 3.0 -1 10
- 0.4 2 5 ping 30000 ------- 0 2.0 3.0 -1 10
r 0.4034 2 5 ping 30000 ------- 0 2.0 3.0 -1 10
+ 0.4034 5 3 ping 30000 ------- 0 2.0 3.0 -1 10
- 0.4034 5 3 ping 30000 ------- 0 2.0 3.0 -1 10
r 0.405 0 5 ping 50000 ------- 0 0.0 4.0 -1 9
+ 0.405 5 4 ping 50000 ------- 0 0.0 4.0 -1 9
d 0.405 5 4 ping 50000 ------- 0 0.0 4.0 -1 9
r 0.4068 5 3 ping 30000 ------- 0 2.0 3.0 -1 10
+ 0.4068 3 5 ping 64 ------- 0 3.0 2.0 -1 11
- 0.4068 3 5 ping 64 ------- 0 3.0 2.0 -1 11
r 0.407805 3 5 ping 64 ------- 0 3.0 2.0 -1 11
+ 0.407805 5 2 ping 64 ------- 0 3.0 2.0 -1 11
- 0.407805 5 2 ping 64 ------- 0 3.0 2.0 -1 11
r 0.40881 5 2 ping 64 ------- 0 3.0 2.0 -1 11
+ 0.5 0 5 ping 50000 ------- 0 0.0 4.0 -1 12
- 0.5 0 5 ping 50000 ------- 0 0.0 4.0 -1 12
+ 0.5 2 5 ping 30000 ------- 0 2.0 3.0 -1 13
- 0.5 2 5 ping 30000 ------- 0 2.0 3.0 -1 13
r 0.5034 2 5 ping 30000 ------- 0 2.0 3.0 -1 13
+ 0.5034 5 3 ping 30000 ------- 0 2.0 3.0 -1 13
- 0.5034 5 3 ping 30000 ------- 0 2.0 3.0 -1 13
- 0.505 5 4 ping 50000 ------- 0 0.0 4.0 -1 3
r 0.505 0 5 ping 50000 ------- 0 0.0 4.0 -1 12
+ 0.505 5 4 ping 50000 ------- 0 0.0 4.0 -1 12
r 0.506 5 4 ping 50000 ------- 0 0.0 4.0 -1 0
+ 0.506 4 5 ping 64 ------- 0 4.0 0.0 -1 14
- 0.506 4 5 ping 64 ------- 0 4.0 0.0 -1 14
r 0.5068 5 3 ping 30000 ------- 0 2.0 3.0 -1 13
+ 0.5068 3 5 ping 64 ------- 0 3.0 2.0 -1 15
- 0.5068 3 5 ping 64 ------- 0 3.0 2.0 -1 15
r 0.507512 4 5 ping 64 ------- 0 4.0 0.0 -1 14
+ 0.507512 5 0 ping 64 ------- 0 4.0 0.0 -1 14
- 0.507512 5 0 ping 64 ------- 0 4.0 0.0 -1 14
r 0.507805 3 5 ping 64 ------- 0 3.0 2.0 -1 15
+ 0.507805 5 2 ping 64 ------- 0 3.0 2.0 -1 15
- 0.507805 5 2 ping 64 ------- 0 3.0 2.0 -1 15
r 0.508517 5 0 ping 64 ------- 0 4.0 0.0 -1 14
r 0.50881 5 2 ping 64 ------- 0 3.0 2.0 -1 15
+ 0.6 0 5 ping 50000 ------- 0 0.0 4.0 -1 16
- 0.6 0 5 ping 50000 ------- 0 0.0 4.0 -1 16
+ 0.6 2 5 ping 30000 ------- 0 2.0 3.0 -1 17
- 0.6 2 5 ping 30000 ------- 0 2.0 3.0 -1 17
r 0.6034 2 5 ping 30000 ------- 0 2.0 3.0 -1 17
+ 0.6034 5 3 ping 30000 ------- 0 2.0 3.0 -1 17
- 0.6034 5 3 ping 30000 ------- 0 2.0 3.0 -1 17
r 0.605 0 5 ping 50000 ------- 0 0.0 4.0 -1 16
+ 0.605 5 4 ping 50000 ------- 0 0.0 4.0 -1 16
d 0.605 5 4 ping 50000 ------- 0 0.0 4.0 -1 16
r 0.6068 5 3 ping 30000 ------- 0 2.0 3.0 -1 17
+ 0.6068 3 5 ping 64 ------- 0 3.0 2.0 -1 18
- 0.6068 3 5 ping 64 ------- 0 3.0 2.0 -1 18
r 0.607805 3 5 ping 64 ------- 0 3.0 2.0 -1 18
+ 0.607805 5 2 ping 64 ------- 0 3.0 2.0 -1 18
- 0.607805 5 2 ping 64 ------- 0 3.0 2.0 -1 18
r 0.60881 5 2 ping 64 ------- 0 3.0 2.0 -1 18
+ 0.7 0 5 ping 50000 ------- 0 0.0 4.0 -1 19
- 0.7 0 5 ping 50000 ------- 0 0.0 4.0 -1 19
+ 0.7 2 5 ping 30000 ------- 0 2.0 3.0 -1 20
- 0.7 2 5 ping 30000 ------- 0 2.0 3.0 -1 20
r 0.7034 2 5 ping 30000 ------- 0 2.0 3.0 -1 20
+ 0.7034 5 3 ping 30000 ------- 0 2.0 3.0 -1 20
- 0.7034 5 3 ping 30000 ------- 0 2.0 3.0 -1 20
r 0.705 0 5 ping 50000 ------- 0 0.0 4.0 -1 19
+ 0.705 5 4 ping 50000 ------- 0 0.0 4.0 -1 19
d 0.705 5 4 ping 50000 ------- 0 0.0 4.0 -1 19
r 0.7068 5 3 ping 30000 ------- 0 2.0 3.0 -1 20
+ 0.7068 3 5 ping 64 ------- 0 3.0 2.0 -1 21
- 0.7068 3 5 ping 64 ------- 0 3.0 2.0 -1 21
r 0.707805 3 5 ping 64 ------- 0 3.0 2.0 -1 21
+ 0.707805 5 2 ping 64 ------- 0 3.0 2.0 -1 21
- 0.707805 5 2 ping 64 ------- 0 3.0 2.0 -1 21
r 0.70881 5 2 ping 64 ------- 0 3.0 2.0 -1 21
+ 0.8 0 5 ping 50000 ------- 0 0.0 4.0 -1 22
- 0.8 0 5 ping 50000 ------- 0 0.0 4.0 -1 22
+ 0.8 2 5 ping 30000 ------- 0 2.0 3.0 -1 23
- 0.8 2 5 ping 30000 ------- 0 2.0 3.0 -1 23
r 0.8034 2 5 ping 30000 ------- 0 2.0 3.0 -1 23
+ 0.8034 5 3 ping 30000 ------- 0 2.0 3.0 -1 23
- 0.8034 5 3 ping 30000 ------- 0 2.0 3.0 -1 23
r 0.805 0 5 ping 50000 ------- 0 0.0 4.0 -1 22
+ 0.805 5 4 ping 50000 ------- 0 0.0 4.0 -1 22
d 0.805 5 4 ping 50000 ------- 0 0.0 4.0 -1 22
r 0.8068 5 3 ping 30000 ------- 0 2.0 3.0 -1 23
+ 0.8068 3 5 ping 64 ------- 0 3.0 2.0 -1 24
- 0.8068 3 5 ping 64 ------- 0 3.0 2.0 -1 24
r 0.807805 3 5 ping 64 ------- 0 3.0 2.0 -1 24
+ 0.807805 5 2 ping 64 ------- 0 3.0 2.0 -1 24
- 0.807805 5 2 ping 64 ------- 0 3.0 2.0 -1 24
r 0.80881 5 2 ping 64 ------- 0 3.0 2.0 -1 24
+ 0.9 0 5 ping 50000 ------- 0 0.0 4.0 -1 25
- 0.9 0 5 ping 50000 ------- 0 0.0 4.0 -1 25
+ 0.9 2 5 ping 30000 ------- 0 2.0 3.0 -1 26
- 0.9 2 5 ping 30000 ------- 0 2.0 3.0 -1 26
r 0.9034 2 5 ping 30000 ------- 0 2.0 3.0 -1 26
+ 0.9034 5 3 ping 30000 ------- 0 2.0 3.0 -1 26
- 0.9034 5 3 ping 30000 ------- 0 2.0 3.0 -1 26
- 0.905 5 4 ping 50000 ------- 0 0.0 4.0 -1 12
r 0.905 0 5 ping 50000 ------- 0 0.0 4.0 -1 25
+ 0.905 5 4 ping 50000 ------- 0 0.0 4.0 -1 25
r 0.906 5 4 ping 50000 ------- 0 0.0 4.0 -1 3
+ 0.906 4 5 ping 64 ------- 0 4.0 0.0 -1 27
- 0.906 4 5 ping 64 ------- 0 4.0 0.0 -1 27
r 0.9068 5 3 ping 30000 ------- 0 2.0 3.0 -1 26
+ 0.9068 3 5 ping 64 ------- 0 3.0 2.0 -1 28
- 0.9068 3 5 ping 64 ------- 0 3.0 2.0 -1 28
r 0.907512 4 5 ping 64 ------- 0 4.0 0.0 -1 27
+ 0.907512 5 0 ping 64 ------- 0 4.0 0.0 -1 27
- 0.907512 5 0 ping 64 ------- 0 4.0 0.0 -1 27
r 0.907805 3 5 ping 64 ------- 0 3.0 2.0 -1 28
+ 0.907805 5 2 ping 64 ------- 0 3.0 2.0 -1 28
- 0.907805 5 2 ping 64 ------- 0 3.0 2.0 -1 28
r 0.908517 5 0 ping 64 ------- 0 4.0 0.0 -1 27
r 0.90881 5 2 ping 64 ------- 0 3.0 2.0 -1 28
+ 1 0 5 ping 50000 ------- 0 0.0 4.0 -1 29
- 1 0 5 ping 50000 ------- 0 0.0 4.0 -1 29
+ 1 2 5 ping 30000 ------- 0 2.0 3.0 -1 30
- 1 2 5 ping 30000 ------- 0 2.0 3.0 -1 30
r 1.0034 2 5 ping 30000 ------- 0 2.0 3.0 -1 30
+ 1.0034 5 3 ping 30000 ------- 0 2.0 3.0 -1 30
- 1.0034 5 3 ping 30000 ------- 0 2.0 3.0 -1 30
r 1.005 0 5 ping 50000 ------- 0 0.0 4.0 -1 29
+ 1.005 5 4 ping 50000 ------- 0 0.0 4.0 -1 29
d 1.005 5 4 ping 50000 ------- 0 0.0 4.0 -1 29
r 1.0068 5 3 ping 30000 ------- 0 2.0 3.0 -1 30
+ 1.0068 3 5 ping 64 ------- 0 3.0 2.0 -1 31
- 1.0068 3 5 ping 64 ------- 0 3.0 2.0 -1 31
r 1.007805 3 5 ping 64 ------- 0 3.0 2.0 -1 31
+ 1.007805 5 2 ping 64 ------- 0 3.0 2.0 -1 31
- 1.007805 5 2 ping 64 ------- 0 3.0 2.0 -1 31
r 1.00881 5 2 ping 64 ------- 0 3.0 2.0 -1 31
+ 1.1 0 5 ping 50000 ------- 0 0.0 4.0 -1 32
- 1.1 0 5 ping 50000 ------- 0 0.0 4.0 -1 32
+ 1.1 2 5 ping 30000 ------- 0 2.0 3.0 -1 33
- 1.1 2 5 ping 30000 ------- 0 2.0 3.0 -1 33
r 1.1034 2 5 ping 30000 ------- 0 2.0 3.0 -1 33
+ 1.1034 5 3 ping 30000 ------- 0 2.0 3.0 -1 33
- 1.1034 5 3 ping 30000 ------- 0 2.0 3.0 -1 33
r 1.105 0 5 ping 50000 ------- 0 0.0 4.0 -1 32
+ 1.105 5 4 ping 50000 ------- 0 0.0 4.0 -1 32
d 1.105 5 4 ping 50000 ------- 0 0.0 4.0 -1 32
r 1.1068 5 3 ping 30000 ------- 0 2.0 3.0 -1 33
+ 1.1068 3 5 ping 64 ------- 0 3.0 2.0 -1 34
- 1.1068 3 5 ping 64 ------- 0 3.0 2.0 -1 34
r 1.107805 3 5 ping 64 ------- 0 3.0 2.0 -1 34
+ 1.107805 5 2 ping 64 ------- 0 3.0 2.0 -1 34
- 1.107805 5 2 ping 64 ------- 0 3.0 2.0 -1 34
r 1.10881 5 2 ping 64 ------- 0 3.0 2.0 -1 34
+ 1.2 0 5 ping 50000 ------- 0 0.0 4.0 -1 35
- 1.2 0 5 ping 50000 ------- 0 0.0 4.0 -1 35
+ 1.2 2 5 ping 30000 ------- 0 2.0 3.0 -1 36
- 1.2 2 5 ping 30000 ------- 0 2.0 3.0 -1 36
r 1.2034 2 5 ping 30000 ------- 0 2.0 3.0 -1 36
+ 1.2034 5 3 ping 30000 ------- 0 2.0 3.0 -1 36
- 1.2034 5 3 ping 30000 ------- 0 2.0 3.0 -1 36
r 1.205 0 5 ping 50000 ------- 0 0.0 4.0 -1 35
+ 1.205 5 4 ping 50000 ------- 0 0.0 4.0 -1 35
d 1.205 5 4 ping 50000 ------- 0 0.0 4.0 -1 35
r 1.2068 5 3 ping 30000 ------- 0 2.0 3.0 -1 36
+ 1.2068 3 5 ping 64 ------- 0 3.0 2.0 -1 37
- 1.2068 3 5 ping 64 ------- 0 3.0 2.0 -1 37
r 1.207805 3 5 ping 64 ------- 0 3.0 2.0 -1 37
+ 1.207805 5 2 ping 64 ------- 0 3.0 2.0 -1 37
- 1.207805 5 2 ping 64 ------- 0 3.0 2.0 -1 37
r 1.20881 5 2 ping 64 ------- 0 3.0 2.0 -1 37
+ 1.3 0 5 ping 50000 ------- 0 0.0 4.0 -1 38
- 1.3 0 5 ping 50000 ------- 0 0.0 4.0 -1 38
+ 1.3 2 5 ping 30000 ------- 0 2.0 3.0 -1 39
- 1.3 2 5 ping 30000 ------- 0 2.0 3.0 -1 39
r 1.3034 2 5 ping 30000 ------- 0 2.0 3.0 -1 39
+ 1.3034 5 3 ping 30000 ------- 0 2.0 3.0 -1 39
- 1.3034 5 3 ping 30000 ------- 0 2.0 3.0 -1 39
r 1.305 0 5 ping 50000 ------- 0 0.0 4.0 -1 38
+ 1.305 5 4 ping 50000 ------- 0 0.0 4.0 -1 38
d 1.305 5 4 ping 50000 ------- 0 0.0 4.0 -1 38
- 1.305 5 4 ping 50000 ------- 0 0.0 4.0 -1 25
r 1.306 5 4 ping 50000 ------- 0 0.0 4.0 -1 12
+ 1.306 4 5 ping 64 ------- 0 4.0 0.0 -1 40
- 1.306 4 5 ping 64 ------- 0 4.0 0.0 -1 40
r 1.3068 5 3 ping 30000 ------- 0 2.0 3.0 -1 39
+ 1.3068 3 5 ping 64 ------- 0 3.0 2.0 -1 41
- 1.3068 3 5 ping 64 ------- 0 3.0 2.0 -1 41
r 1.307512 4 5 ping 64 ------- 0 4.0 0.0 -1 40
+ 1.307512 5 0 ping 64 ------- 0 4.0 0.0 -1 40
- 1.307512 5 0 ping 64 ------- 0 4.0 0.0 -1 40
r 1.307805 3 5 ping 64 ------- 0 3.0 2.0 -1 41
+ 1.307805 5 2 ping 64 ------- 0 3.0 2.0 -1 41
- 1.307805 5 2 ping 64 ------- 0 3.0 2.0 -1 41
r 1.308517 5 0 ping 64 ------- 0 4.0 0.0 -1 40
r 1.30881 5 2 ping 64 ------- 0 3.0 2.0 -1 41
+ 1.4 0 5 ping 50000 ------- 0 0.0 4.0 -1 42
- 1.4 0 5 ping 50000 ------- 0 0.0 4.0 -1 42
+ 1.4 2 5 ping 30000 ------- 0 2.0 3.0 -1 43
- 1.4 2 5 ping 30000 ------- 0 2.0 3.0 -1 43
r 1.4034 2 5 ping 30000 ------- 0 2.0 3.0 -1 43
+ 1.4034 5 3 ping 30000 ------- 0 2.0 3.0 -1 43
- 1.4034 5 3 ping 30000 ------- 0 2.0 3.0 -1 43
r 1.405 0 5 ping 50000 ------- 0 0.0 4.0 -1 42
+ 1.405 5 4 ping 50000 ------- 0 0.0 4.0 -1 42
r 1.4068 5 3 ping 30000 ------- 0 2.0 3.0 -1 43
+ 1.4068 3 5 ping 64 ------- 0 3.0 2.0 -1 44
- 1.4068 3 5 ping 64 ------- 0 3.0 2.0 -1 44
r 1.407805 3 5 ping 64 ------- 0 3.0 2.0 -1 44
+ 1.407805 5 2 ping 64 ------- 0 3.0 2.0 -1 44
- 1.407805 5 2 ping 64 ------- 0 3.0 2.0 -1 44
r 1.40881 5 2 ping 64 ------- 0 3.0 2.0 -1 44
+ 1.5 0 5 ping 50000 ------- 0 0.0 4.0 -1 45
- 1.5 0 5 ping 50000 ------- 0 0.0 4.0 -1 45
+ 1.5 2 5 ping 30000 ------- 0 2.0 3.0 -1 46
- 1.5 2 5 ping 30000 ------- 0 2.0 3.0 -1 46
r 1.5034 2 5 ping 30000 ------- 0 2.0 3.0 -1 46
+ 1.5034 5 3 ping 30000 ------- 0 2.0 3.0 -1 46
- 1.5034 5 3 ping 30000 ------- 0 2.0 3.0 -1 46
r 1.505 0 5 ping 50000 ------- 0 0.0 4.0 -1 45
+ 1.505 5 4 ping 50000 ------- 0 0.0 4.0 -1 45
d 1.505 5 4 ping 50000 ------- 0 0.0 4.0 -1 45
r 1.5068 5 3 ping 30000 ------- 0 2.0 3.0 -1 46
+ 1.5068 3 5 ping 64 ------- 0 3.0 2.0 -1 47
- 1.5068 3 5 ping 64 ------- 0 3.0 2.0 -1 47
r 1.507805 3 5 ping 64 ------- 0 3.0 2.0 -1 47
+ 1.507805 5 2 ping 64 ------- 0 3.0 2.0 -1 47
- 1.507805 5 2 ping 64 ------- 0 3.0 2.0 -1 47
r 1.50881 5 2 ping 64 ------- 0 3.0 2.0 -1 47
+ 1.6 0 5 ping 50000 ------- 0 0.0 4.0 -1 48
- 1.6 0 5 ping 50000 ------- 0 0.0 4.0 -1 48
+ 1.6 2 5 ping 30000 ------- 0 2.0 3.0 -1 49
- 1.6 2 5 ping 30000 ------- 0 2.0 3.0 -1 49
r 1.6034 2 5 ping 30000 ------- 0 2.0 3.0 -1 49
+ 1.6034 5 3 ping 30000 ------- 0 2.0 3.0 -1 49
- 1.6034 5 3 ping 30000 ------- 0 2.0 3.0 -1 49
r 1.605 0 5 ping 50000 ------- 0 0.0 4.0 -1 48
+ 1.605 5 4 ping 50000 ------- 0 0.0 4.0 -1 48
d 1.605 5 4 ping 50000 ------- 0 0.0 4.0 -1 48
r 1.6068 5 3 ping 30000 ------- 0 2.0 3.0 -1 49
+ 1.6068 3 5 ping 64 ------- 0 3.0 2.0 -1 50
- 1.6068 3 5 ping 64 ------- 0 3.0 2.0 -1 50
r 1.607805 3 5 ping 64 ------- 0 3.0 2.0 -1 50
+ 1.607805 5 2 ping 64 ------- 0 3.0 2.0 -1 50
- 1.607805 5 2 ping 64 ------- 0 3.0 2.0 -1 50
r 1.60881 5 2 ping 64 ------- 0 3.0 2.0 -1 50
+ 1.7 0 5 ping 50000 ------- 0 0.0 4.0 -1 51
- 1.7 0 5 ping 50000 ------- 0 0.0 4.0 -1 51
+ 1.7 2 5 ping 30000 ------- 0 2.0 3.0 -1 52
- 1.7 2 5 ping 30000 ------- 0 2.0 3.0 -1 52
r 1.7034 2 5 ping 30000 ------- 0 2.0 3.0 -1 52
+ 1.7034 5 3 ping 30000 ------- 0 2.0 3.0 -1 52
- 1.7034 5 3 ping 30000 ------- 0 2.0 3.0 -1 52
r 1.705 0 5 ping 50000 ------- 0 0.0 4.0 -1 51
+ 1.705 5 4 ping 50000 ------- 0 0.0 4.0 -1 51
d 1.705 5 4 ping 50000 ------- 0 0.0 4.0 -1 51
- 1.705 5 4 ping 50000 ------- 0 0.0 4.0 -1 42
r 1.706 5 4 ping 50000 ------- 0 0.0 4.0 -1 25
+ 1.706 4 5 ping 64 ------- 0 4.0 0.0 -1 53
- 1.706 4 5 ping 64 ------- 0 4.0 0.0 -1 53
r 1.7068 5 3 ping 30000 ------- 0 2.0 3.0 -1 52
+ 1.7068 3 5 ping 64 ------- 0 3.0 2.0 -1 54
- 1.7068 3 5 ping 64 ------- 0 3.0 2.0 -1 54
r 1.707512 4 5 ping 64 ------- 0 4.0 0.0 -1 53
+ 1.707512 5 0 ping 64 ------- 0 4.0 0.0 -1 53
- 1.707512 5 0 ping 64 ------- 0 4.0 0.0 -1 53
r 1.707805 3 5 ping 64 ------- 0 3.0 2.0 -1 54
+ 1.707805 5 2 ping 64 ------- 0 3.0 2.0 -1 54
- 1.707805 5 2 ping 64 ------- 0 3.0 2.0 -1 54
r 1.708517 5 0 ping 64 ------- 0 4.0 0.0 -1 53
r 1.70881 5 2 ping 64 ------- 0 3.0 2.0 -1 54
+ 1.8 0 5 ping 50000 ------- 0 0.0 4.0 -1 55
- 1.8 0 5 ping 50000 ------- 0 0.0 4.0 -1 55
+ 1.8 2 5 ping 30000 ------- 0 2.0 3.0 -1 56
- 1.8 2 5 ping 30000 ------- 0 2.0 3.0 -1 56
r 1.8034 2 5 ping 30000 ------- 0 2.0 3.0 -1 56
+ 1.8034 5 3 ping 30000 ------- 0 2.0 3.0 -1 56
- 1.8034 5 3 ping 30000 ------- 0 2.0 3.0 -1 56
r 1.805 0 5 ping 50000 ------- 0 0.0 4.0 -1 55
+ 1.805 5 4 ping 50000 ------- 0 0.0 4.0 -1 55
r 1.8068 5 3 ping 30000 ------- 0 2.0 3.0 -1 56
+ 1.8068 3 5 ping 64 ------- 0 3.0 2.0 -1 57
- 1.8068 3 5 ping 64 ------- 0 3.0 2.0 -1 57
r 1.807805 3 5 ping 64 ------- 0 3.0 2.0 -1 57
+ 1.807805 5 2 ping 64 ------- 0 3.0 2.0 -1 57
- 1.807805 5 2 ping 64 ------- 0 3.0 2.0 -1 57
r 1.80881 5 2 ping 64 ------- 0 3.0 2.0 -1 57
+ 1.9 0 5 ping 50000 ------- 0 0.0 4.0 -1 58
- 1.9 0 5 ping 50000 ------- 0 0.0 4.0 -1 58
+ 1.9 2 5 ping 30000 ------- 0 2.0 3.0 -1 59
- 1.9 2 5 ping 30000 ------- 0 2.0 3.0 -1 59
r 1.9034 2 5 ping 30000 ------- 0 2.0 3.0 -1 59
+ 1.9034 5 3 ping 30000 ------- 0 2.0 3.0 -1 59
- 1.9034 5 3 ping 30000 ------- 0 2.0 3.0 -1 59
r 1.905 0 5 ping 50000 ------- 0 0.0 4.0 -1 58
+ 1.905 5 4 ping 50000 ------- 0 0.0 4.0 -1 58
d 1.905 5 4 ping 50000 ------- 0 0.0 4.0 -1 58
r 1.9068 5 3 ping 30000 ------- 0 2.0 3.0 -1 59
+ 1.9068 3 5 ping 64 ------- 0 3.0 2.0 -1 60
- 1.9068 3 5 ping 64 ------- 0 3.0 2.0 -1 60
r 1.907805 3 5 ping 64 ------- 0 3.0 2.0 -1 60
+ 1.907805 5 2 ping 64 ------- 0 3.0 2.0 -1 60
- 1.907805 5 2 ping 64 ------- 0 3.0 2.0 -1 60
r 1.90881 5 2 ping 64 ------- 0 3.0 2.0 -1 60
+ 2 0 5 ping 50000 ------- 0 0.0 4.0 -1 61
- 2 0 5 ping 50000 ------- 0 0.0 4.0 -1 61
+ 2 2 5 ping 30000 ------- 0 2.0 3.0 -1 62
- 2 2 5 ping 30000 ------- 0 2.0 3.0 -1 62
r 2.0034 2 5 ping 30000 ------- 0 2.0 3.0 -1 62
+ 2.0034 5 3 ping 30000 ------- 0 2.0 3.0 -1 62
- 2.0034 5 3 ping 30000 ------- 0 2.0 3.0 -1 62
r 2.005 0 5 ping 50000 ------- 0 0.0 4.0 -1 61
+ 2.005 5 4 ping 50000 ------- 0 0.0 4.0 -1 61
d 2.005 5 4 ping 50000 ------- 0 0.0 4.0 -1 61
r 2.0068 5 3 ping 30000 ------- 0 2.0 3.0 -1 62
+ 2.0068 3 5 ping 64 ------- 0 3.0 2.0 -1 63
- 2.0068 3 5 ping 64 ------- 0 3.0 2.0 -1 63
r 2.007805 3 5 ping 64 ------- 0 3.0 2.0 -1 63
+ 2.007805 5 2 ping 64 ------- 0 3.0 2.0 -1 63
- 2.007805 5 2 ping 64 ------- 0 3.0 2.0 -1 63
r 2.00881 5 2 ping 64 ------- 0 3.0 2.0 -1 63
+ 2.1 0 5 ping 50000 ------- 0 0.0 4.0 -1 64
- 2.1 0 5 ping 50000 ------- 0 0.0 4.0 -1 64
+ 2.1 2 5 ping 30000 ------- 0 2.0 3.0 -1 65
- 2.1 2 5 ping 30000 ------- 0 2.0 3.0 -1 65
r 2.1034 2 5 ping 30000 ------- 0 2.0 3.0 -1 65
+ 2.1034 5 3 ping 30000 ------- 0 2.0 3.0 -1 65
- 2.1034 5 3 ping 30000 ------- 0 2.0 3.0 -1 65
- 2.105 5 4 ping 50000 ------- 0 0.0 4.0 -1 55
r 2.105 0 5 ping 50000 ------- 0 0.0 4.0 -1 64
+ 2.105 5 4 ping 50000 ------- 0 0.0 4.0 -1 64
r 2.106 5 4 ping 50000 ------- 0 0.0 4.0 -1 42
+ 2.106 4 5 ping 64 ------- 0 4.0 0.0 -1 66
- 2.106 4 5 ping 64 ------- 0 4.0 0.0 -1 66
r 2.1068 5 3 ping 30000 ------- 0 2.0 3.0 -1 65
+ 2.1068 3 5 ping 64 ------- 0 3.0 2.0 -1 67
- 2.1068 3 5 ping 64 ------- 0 3.0 2.0 -1 67
r 2.107512 4 5 ping 64 ------- 0 4.0 0.0 -1 66
+ 2.107512 5 0 ping 64 ------- 0 4.0 0.0 -1 66
- 2.107512 5 0 ping 64 ------- 0 4.0 0.0 -1 66
r 2.107805 3 5 ping 64 ------- 0 3.0 2.0 -1 67
+ 2.107805 5 2 ping 64 ------- 0 3.0 2.0 -1 67
- 2.107805 5 2 ping 64 ------- 0 3.0 2.0 -1 67
r 2.108517 5 0 ping 64 ------- 0 4.0 0.0 -1 66
r 2.10881 5 2 ping 64 ------- 0 3.0 2.0 -1 67
+ 2.2 0 5 ping 50000 ------- 0 0.0 4.0 -1 68
- 2.2 0 5 ping 50000 ------- 0 0.0 4.0 -1 68
+ 2.2 2 5 ping 30000 ------- 0 2.0 3.0 -1 69
- 2.2 2 5 ping 30000 ------- 0 2.0 3.0 -1 69
r 2.2034 2 5 ping 30000 ------- 0 2.0 3.0 -1 69
+ 2.2034 5 3 ping 30000 ------- 0 2.0 3.0 -1 69
- 2.2034 5 3 ping 30000 ------- 0 2.0 3.0 -1 69
r 2.205 0 5 ping 50000 ------- 0 0.0 4.0 -1 68
+ 2.205 5 4 ping 50000 ------- 0 0.0 4.0 -1 68
d 2.205 5 4 ping 50000 ------- 0 0.0 4.0 -1 68
r 2.2068 5 3 ping 30000 ------- 0 2.0 3.0 -1 69
+ 2.2068 3 5 ping 64 ------- 0 3.0 2.0 -1 70
- 2.2068 3 5 ping 64 ------- 0 3.0 2.0 -1 70
r 2.207805 3 5 ping 64 ------- 0 3.0 2.0 -1 70
+ 2.207805 5 2 ping 64 ------- 0 3.0 2.0 -1 70
- 2.207805 5 2 ping 64 ------- 0 3.0 2.0 -1 70
r 2.20881 5 2 ping 64 ------- 0 3.0 2.0 -1 70
+ 2.3 0 5 ping 50000 ------- 0 0.0 4.0 -1 71
- 2.3 0 5 ping 50000 ------- 0 0.0 4.0 -1 71
+ 2.3 2 5 ping 30000 ------- 0 2.0 3.0 -1 72
- 2.3 2 5 ping 30000 ------- 0 2.0 3.0 -1 72
r 2.3034 2 5 ping 30000 ------- 0 2.0 3.0 -1 72
+ 2.3034 5 3 ping 30000 ------- 0 2.0 3.0 -1 72
- 2.3034 5 3 ping 30000 ------- 0 2.0 3.0 -1 72
r 2.305 0 5 ping 50000 ------- 0 0.0 4.0 -1 71
+ 2.305 5 4 ping 50000 ------- 0 0.0 4.0 -1 71
d 2.305 5 4 ping 50000 ------- 0 0.0 4.0 -1 71
r 2.3068 5 3 ping 30000 ------- 0 2.0 3.0 -1 72
+ 2.3068 3 5 ping 64 ------- 0 3.0 2.0 -1 73
- 2.3068 3 5 ping 64 ------- 0 3.0 2.0 -1 73
r 2.307805 3 5 ping 64 ------- 0 3.0 2.0 -1 73
+ 2.307805 5 2 ping 64 ------- 0 3.0 2.0 -1 73
- 2.307805 5 2 ping 64 ------- 0 3.0 2.0 -1 73
r 2.30881 5 2 ping 64 ------- 0 3.0 2.0 -1 73
+ 2.4 0 5 ping 50000 ------- 0 0.0 4.0 -1 74
- 2.4 0 5 ping 50000 ------- 0 0.0 4.0 -1 74
+ 2.4 2 5 ping 30000 ------- 0 2.0 3.0 -1 75
- 2.4 2 5 ping 30000 ------- 0 2.0 3.0 -1 75
r 2.4034 2 5 ping 30000 ------- 0 2.0 3.0 -1 75
+ 2.4034 5 3 ping 30000 ------- 0 2.0 3.0 -1 75
- 2.4034 5 3 ping 30000 ------- 0 2.0 3.0 -1 75
r 2.405 0 5 ping 50000 ------- 0 0.0 4.0 -1 74
+ 2.405 5 4 ping 50000 ------- 0 0.0 4.0 -1 74
d 2.405 5 4 ping 50000 ------- 0 0.0 4.0 -1 74
r 2.4068 5 3 ping 30000 ------- 0 2.0 3.0 -1 75
+ 2.4068 3 5 ping 64 ------- 0 3.0 2.0 -1 76
- 2.4068 3 5 ping 64 ------- 0 3.0 2.0 -1 76
r 2.407805 3 5 ping 64 ------- 0 3.0 2.0 -1 76
+ 2.407805 5 2 ping 64 ------- 0 3.0 2.0 -1 76
- 2.407805 5 2 ping 64 ------- 0 3.0 2.0 -1 76
r 2.40881 5 2 ping 64 ------- 0 3.0 2.0 -1 76
+ 2.5 0 5 ping 50000 ------- 0 0.0 4.0 -1 77
- 2.5 0 5 ping 50000 ------- 0 0.0 4.0 -1 77
+ 2.5 2 5 ping 30000 ------- 0 2.0 3.0 -1 78
- 2.5 2 5 ping 30000 ------- 0 2.0 3.0 -1 78
r 2.5034 2 5 ping 30000 ------- 0 2.0 3.0 -1 78
+ 2.5034 5 3 ping 30000 ------- 0 2.0 3.0 -1 78
- 2.5034 5 3 ping 30000 ------- 0 2.0 3.0 -1 78
- 2.505 5 4 ping 50000 ------- 0 0.0 4.0 -1 64
r 2.505 0 5 ping 50000 ------- 0 0.0 4.0 -1 77
+ 2.505 5 4 ping 50000 ------- 0 0.0 4.0 -1 77
r 2.506 5 4 ping 50000 ------- 0 0.0 4.0 -1 55
+ 2.506 4 5 ping 64 ------- 0 4.0 0.0 -1 79
- 2.506 4 5 ping 64 ------- 0 4.0 0.0 -1 79
r 2.5068 5 3 ping 30000 ------- 0 2.0 3.0 -1 78
+ 2.5068 3 5 ping 64 ------- 0 3.0 2.0 -1 80
- 2.5068 3 5 ping 64 ------- 0 3.0 2.0 -1 80
r 2.507512 4 5 ping 64 ------- 0 4.0 0.0 -1 79
+ 2.507512 5 0 ping 64 ------- 0 4.0 0.0 -1 79
- 2.507512 5 0 ping 64 ------- 0 4.0 0.0 -1 79
r 2.507805 3 5 ping 64 ------- 0 3.0 2.0 -1 80
+ 2.507805 5 2 ping 64 ------- 0 3.0 2.0 -1 80
- 2.507805 5 2 ping 64 ------- 0 3.0 2.0 -1 80
r 2.508517 5 0 ping 64 ------- 0 4.0 0.0 -1 79
r 2.50881 5 2 ping 64 ------- 0 3.0 2.0 -1 80
+ 2.6 0 5 ping 50000 ------- 0 0.0 4.0 -1 81
- 2.6 0 5 ping 50000 ------- 0 0.0 4.0 -1 81
+ 2.6 2 5 ping 30000 ------- 0 2.0 3.0 -1 82
- 2.6 2 5 ping 30000 ------- 0 2.0 3.0 -1 82
r 2.6034 2 5 ping 30000 ------- 0 2.0 3.0 -1 82
+ 2.6034 5 3 ping 30000 ------- 0 2.0 3.0 -1 82
- 2.6034 5 3 ping 30000 ------- 0 2.0 3.0 -1 82
r 2.605 0 5 ping 50000 ------- 0 0.0 4.0 -1 81
+ 2.605 5 4 ping 50000 ------- 0 0.0 4.0 -1 81
d 2.605 5 4 ping 50000 ------- 0 0.0 4.0 -1 81
r 2.6068 5 3 ping 30000 ------- 0 2.0 3.0 -1 82
+ 2.6068 3 5 ping 64 ------- 0 3.0 2.0 -1 83
- 2.6068 3 5 ping 64 ------- 0 3.0 2.0 -1 83
r 2.607805 3 5 ping 64 ------- 0 3.0 2.0 -1 83
+ 2.607805 5 2 ping 64 ------- 0 3.0 2.0 -1 83
- 2.607805 5 2 ping 64 ------- 0 3.0 2.0 -1 83
r 2.60881 5 2 ping 64 ------- 0 3.0 2.0 -1 83
+ 2.7 0 5 ping 50000 ------- 0 0.0 4.0 -1 84
- 2.7 0 5 ping 50000 ------- 0 0.0 4.0 -1 84
+ 2.7 2 5 ping 30000 ------- 0 2.0 3.0 -1 85
- 2.7 2 5 ping 30000 ------- 0 2.0 3.0 -1 85
r 2.7034 2 5 ping 30000 ------- 0 2.0 3.0 -1 85
+ 2.7034 5 3 ping 30000 ------- 0 2.0 3.0 -1 85
- 2.7034 5 3 ping 30000 ------- 0 2.0 3.0 -1 85
r 2.705 0 5 ping 50000 ------- 0 0.0 4.0 -1 84
+ 2.705 5 4 ping 50000 ------- 0 0.0 4.0 -1 84
d 2.705 5 4 ping 50000 ------- 0 0.0 4.0 -1 84
r 2.7068 5 3 ping 30000 ------- 0 2.0 3.0 -1 85
+ 2.7068 3 5 ping 64 ------- 0 3.0 2.0 -1 86
- 2.7068 3 5 ping 64 ------- 0 3.0 2.0 -1 86
r 2.707805 3 5 ping 64 ------- 0 3.0 2.0 -1 86
+ 2.707805 5 2 ping 64 ------- 0 3.0 2.0 -1 86
- 2.707805 5 2 ping 64 ------- 0 3.0 2.0 -1 86
r 2.70881 5 2 ping 64 ------- 0 3.0 2.0 -1 86
+ 2.8 0 5 ping 50000 ------- 0 0.0 4.0 -1 87
- 2.8 0 5 ping 50000 ------- 0 0.0 4.0 -1 87
+ 2.8 2 5 ping 30000 ------- 0 2.0 3.0 -1 88
- 2.8 2 5 ping 30000 ------- 0 2.0 3.0 -1 88
r 2.8034 2 5 ping 30000 ------- 0 2.0 3.0 -1 88
+ 2.8034 5 3 ping 30000 ------- 0 2.0 3.0 -1 88
- 2.8034 5 3 ping 30000 ------- 0 2.0 3.0 -1 88
r 2.805 0 5 ping 50000 ------- 0 0.0 4.0 -1 87
+ 2.805 5 4 ping 50000 ------- 0 0.0 4.0 -1 87
d 2.805 5 4 ping 50000 ------- 0 0.0 4.0 -1 87
r 2.8068 5 3 ping 30000 ------- 0 2.0 3.0 -1 88
+ 2.8068 3 5 ping 64 ------- 0 3.0 2.0 -1 89
- 2.8068 3 5 ping 64 ------- 0 3.0 2.0 -1 89
r 2.807805 3 5 ping 64 ------- 0 3.0 2.0 -1 89
+ 2.807805 5 2 ping 64 ------- 0 3.0 2.0 -1 89
- 2.807805 5 2 ping 64 ------- 0 3.0 2.0 -1 89
r 2.80881 5 2 ping 64 ------- 0 3.0 2.0 -1 89
+ 2.9 0 5 ping 50000 ------- 0 0.0 4.0 -1 90
- 2.9 0 5 ping 50000 ------- 0 0.0 4.0 -1 90
+ 2.9 2 5 ping 30000 ------- 0 2.0 3.0 -1 91
- 2.9 2 5 ping 30000 ------- 0 2.0 3.0 -1 91
r 2.9034 2 5 ping 30000 ------- 0 2.0 3.0 -1 91
+ 2.9034 5 3 ping 30000 ------- 0 2.0 3.0 -1 91
- 2.9034 5 3 ping 30000 ------- 0 2.0 3.0 -1 91
- 2.905 5 4 ping 50000 ------- 0 0.0 4.0 -1 77
r 2.905 0 5 ping 50000 ------- 0 0.0 4.0 -1 90
+ 2.905 5 4 ping 50000 ------- 0 0.0 4.0 -1 90
r 2.906 5 4 ping 50000 ------- 0 0.0 4.0 -1 64
+ 2.906 4 5 ping 64 ------- 0 4.0 0.0 -1 92
- 2.906 4 5 ping 64 ------- 0 4.0 0.0 -1 92
r 2.9068 5 3 ping 30000 ------- 0 2.0 3.0 -1 91
+ 2.9068 3 5 ping 64 ------- 0 3.0 2.0 -1 93
- 2.9068 3 5 ping 64 ------- 0 3.0 2.0 -1 93
r 2.907512 4 5 ping 64 ------- 0 4.0 0.0 -1 92
+ 2.907512 5 0 ping 64 ------- 0 4.0 0.0 -1 92
- 2.907512 5 0 ping 64 ------- 0 4.0 0.0 -1 92
r 2.907805 3 5 ping 64 ------- 0 3.0 2.0 -1 93
+ 2.907805 5 2 ping 64 ------- 0 3.0 2.0 -1 93
- 2.907805 5 2 ping 64 ------- 0 3.0 2.0 -1 93
r 2.908517 5 0 ping 64 ------- 0 4.0 0.0 -1 92
r 2.90881 5 2 ping 64 ------- 0 3.0 2.0 -1 93
