+ 0.1 0 5 ping 50000 ------- 0 0.0 4.0 -1 0
- 0.1 0 5 ping 50000 ------- 0 0.0 4.0 -1 0
+ 0.1 2 5 ping 30000 ------- 0 2.0 3.0 -1 1
- 0.1 2 5 ping 30000 ------- 0 2.0 3.0 -1 1
r 0.10112 2 5 ping 30000 ------- 0 2.0 3.0 -1 1
+ 0.10112 5 3 ping 30000 ------- 0 2.0 3.0 -1 1
- 0.10112 5 3 ping 30000 ------- 0 2.0 3.0 -1 1
r 0.101398 0 5 ping 50000 ------- 0 0.0 4.0 -1 0
+ 0.101398 5 4 ping 50000 ------- 0 0.0 4.0 -1 0
- 0.101398 5 4 ping 50000 ------- 0 0.0 4.0 -1 0
r 0.10332 5 3 ping 30000 ------- 0 2.0 3.0 -1 1
+ 0.10332 3 5 ping 64 ------- 0 3.0 2.0 -1 2
- 0.10332 3 5 ping 64 ------- 0 3.0 2.0 -1 2
r 0.104323 3 5 ping 64 ------- 0 3.0 2.0 -1 2
+ 0.104323 5 2 ping 64 ------- 0 3.0 2.0 -1 2
- 0.104323 5 2 ping 64 ------- 0 3.0 2.0 -1 2
r 0.105323 5 2 ping 64 ------- 0 3.0 2.0 -1 2
+ 0.2 0 5 ping 50000 ------- 0 0.0 4.0 -1 3
- 0.2 0 5 ping 50000 ------- 0 0.0 4.0 -1 3
+ 0.2 2 5 ping 30000 ------- 0 2.0 3.0 -1 4
- 0.2 2 5 ping 30000 ------- 0 2.0 3.0 -1 4
r 0.20112 2 5 ping 30000 ------- 0 2.0 3.0 -1 4
+ 0.20112 5 3 ping 30000 ------- 0 2.0 3.0 -1 4
- 0.20112 5 3 ping 30000 ------- 0 2.0 3.0 -1 4
r 0.201398 0 5 ping 50000 ------- 0 0.0 4.0 -1 3
+ 0.201398 5 4 ping 50000 ------- 0 0.0 4.0 -1 3
r 0.20332 5 3 ping 30000 ------- 0 2.0 3.0 -1 4
+ 0.20332 3 5 ping 64 ------- 0 3.0 2.0 -1 5
- 0.20332 3 5 ping 64 ------- 0 3.0 2.0 -1 5
r 0.204323 3 5 ping 64 ------- 0 3.0 2.0 -1 5
+ 0.204323 5 2 ping 64 ------- 0 3.0 2.0 -1 5
- 0.204323 5 2 ping 64 ------- 0 3.0 2.0 -1 5
r 0.205323 5 2 ping 64 ------- 0 3.0 2.0 -1 5
+ 0.3 0 5 ping 50000 ------- 0 0.0 4.0 -1 6
- 0.3 0 5 ping 50000 ------- 0 0.0 4.0 -1 6
+ 0.3 2 5 ping 30000 ------- 0 2.0 3.0 -1 7
- 0.3 2 5 ping 30000 ------- 0 2.0 3.0 -1 7
r 0.30112 2 5 ping 30000 ------- 0 2.0 3.0 -1 7
+ 0.30112 5 3 ping 30000 ------- 0 2.0 3.0 -1 7
- 0.30112 5 3 ping 30000 ------- 0 2.0 3.0 -1 7
r 0.301398 0 5 ping 50000 ------- 0 0.0 4.0 -1 6
+ 0.301398 5 4 ping 50000 ------- 0 0.0 4.0 -1 6
d 0.301398 5 4 ping 50000 ------- 0 0.0 4.0 -1 6
r 0.30332 5 3 ping 30000 ------- 0 2.0 3.0 -1 7
+ 0.30332 3 5 ping 64 ------- 0 3.0 2.0 -1 8
- 0.30332 3 5 ping 64 ------- 0 3.0 2.0 -1 8
r 0.304323 3 5 ping 64 ------- 0 3.0 2.0 -1 8
+ 0.304323 5 2 ping 64 ------- 0 3.0 2.0 -1 8
- 0.304323 5 2 ping 64 ------- 0 3.0 2.0 -1 8
r 0.305323 5 2 ping 64 ------- 0 3.0 2.0 -1 8
+ 0.4 0 5 ping 50000 ------- 0 0.0 4.0 -1 9
- 0.4 0 5 ping 50000 ------- 0 0.0 4.0 -1 9
+ 0.4 2 5 ping 30000 ------- 0 2.0 3.0 -1 10
- 0.4 2 5 ping 30000 ------- 0 2.0 3.0 -1 10
r 0.40112 2 5 ping 30000 ------- 0 2.0 3.0 -1 10
+ 0.40112 5 3 ping 30000 ------- 0 2.0 3.0 -1 10
- 0.40112 5 3 ping 30000 ------- 0 2.0 3.0 -1 10
r 0.401398 0 5 ping 50000 ------- 0 0.0 4.0 -1 9
+ 0.401398 5 4 ping 50000 ------- 0 0.0 4.0 -1 9
d 0.401398 5 4 ping 50000 ------- 0 0.0 4.0 -1 9
r 0.40332 5 3 ping 30000 ------- 0 2.0 3.0 -1 10
+ 0.40332 3 5 ping 64 ------- 0 3.0 2.0 -1 11
- 0.40332 3 5 ping 64 ------- 0 3.0 2.0 -1 11
r 0.404323 3 5 ping 64 ------- 0 3.0 2.0 -1 11
+ 0.404323 5 2 ping 64 ------- 0 3.0 2.0 -1 11
- 0.404323 5 2 ping 64 ------- 0 3.0 2.0 -1 11
r 0.405323 5 2 ping 64 ------- 0 3.0 2.0 -1 11
+ 0.5 0 5 ping 50000 ------- 0 0.0 4.0 -1 12
- 0.5 0 5 ping 50000 ------- 0 0.0 4.0 -1 12
+ 0.5 2 5 ping 30000 ------- 0 2.0 3.0 -1 13
- 0.5 2 5 ping 30000 ------- 0 2.0 3.0 -1 13
r 0.50112 2 5 ping 30000 ------- 0 2.0 3.0 -1 13
+ 0.50112 5 3 ping 30000 ------- 0 2.0 3.0 -1 13
- 0.50112 5 3 ping 30000 ------- 0 2.0 3.0 -1 13
- 0.501398 5 4 ping 50000 ------- 0 0.0 4.0 -1 3
r 0.501398 0 5 ping 50000 ------- 0 0.0 4.0 -1 12
+ 0.501398 5 4 ping 50000 ------- 0 0.0 4.0 -1 12
r 0.502398 5 4 ping 50000 ------- 0 0.0 4.0 -1 0
+ 0.502398 4 5 ping 64 ------- 0 4.0 0.0 -1 14
- 0.502398 4 5 ping 64 ------- 0 4.0 0.0 -1 14
r 0.50332 5 3 ping 30000 ------- 0 2.0 3.0 -1 13
+ 0.50332 3 5 ping 64 ------- 0 3.0 2.0 -1 15
- 0.50332 3 5 ping 64 ------- 0 3.0 2.0 -1 15
r 0.50391 4 5 ping 64 ------- 0 4.0 0.0 -1 14
+ 0.50391 5 0 ping 64 ------- 0 4.0 0.0 -1 14
- 0.50391 5 0 ping 64 ------- 0 4.0 0.0 -1 14
r 0.504323 3 5 ping 64 ------- 0 3.0 2.0 -1 15
+ 0.504323 5 2 ping 64 ------- 0 3.0 2.0 -1 15
- 0.504323 5 2 ping 64 ------- 0 3.0 2.0 -1 15
r 0.504911 5 0 ping 64 ------- 0 4.0 0.0 -1 14
r 0.505323 5 2 ping 64 ------- 0 3.0 2.0 -1 15
+ 0.6 0 5 ping 50000 ------- 0 0.0 4.0 -1 16
- 0.6 0 5 ping 50000 ------- 0 0.0 4.0 -1 16
+ 0.6 2 5 ping 30000 ------- 0 2.0 3.0 -1 17
- 0.6 2 5 ping 30000 ------- 0 2.0 3.0 -1 17
r 0.60112 2 5 ping 30000 ------- 0 2.0 3.0 -1 17
+ 0.60112 5 3 ping 30000 ------- 0 2.0 3.0 -1 17
- 0.60112 5 3 ping 30000 ------- 0 2.0 3.0 -1 17
r 0.601398 0 5 ping 50000 ------- 0 0.0 4.0 -1 16
+ 0.601398 5 4 ping 50000 ------- 0 0.0 4.0 -1 16
d 0.601398 5 4 ping 50000 ------- 0 0.0 4.0 -1 16
r 0.60332 5 3 ping 30000 ------- 0 2.0 3.0 -1 17
+ 0.60332 3 5 ping 64 ------- 0 3.0 2.0 -1 18
- 0.60332 3 5 ping 64 ------- 0 3.0 2.0 -1 18
r 0.604323 3 5 ping 64 ------- 0 3.0 2.0 -1 18
+ 0.604323 5 2 ping 64 ------- 0 3.0 2.0 -1 18
- 0.604323 5 2 ping 64 ------- 0 3.0 2.0 -1 18
r 0.605323 5 2 ping 64 ------- 0 3.0 2.0 -1 18
+ 0.7 0 5 ping 50000 ------- 0 0.0 4.0 -1 19
- 0.7 0 5 ping 50000 ------- 0 0.0 4.0 -1 19
+ 0.7 2 5 ping 30000 ------- 0 2.0 3.0 -1 20
- 0.7 2 5 ping 30000 ------- 0 2.0 3.0 -1 20
r 0.70112 2 5 ping 30000 ------- 0 2.0 3.0 -1 20
+ 0.70112 5 3 ping 30000 ------- 0 2.0 3.0 -1 20
- 0.70112 5 3 ping 30000 ------- 0 2.0 3.0 -1 20
r 0.701398 0 5 ping 50000 ------- 0 0.0 4.0 -1 19
+ 0.701398 5 4 ping 50000 ------- 0 0.0 4.0 -1 19
d 0.701398 5 4 ping 50000 ------- 0 0.0 4.0 -1 19
r 0.70332 5 3 ping 30000 ------- 0 2.0 3.0 -1 20
+ 0.70332 3 5 ping 64 ------- 0 3.0 2.0 -1 21
- 0.70332 3 5 ping 64 ------- 0 3.0 2.0 -1 21
r 0.704323 3 5 ping 64 ------- 0 3.0 2.0 -1 21
+ 0.704323 5 2 ping 64 ------- 0 3.0 2.0 -1 21
- 0.704323 5 2 ping 64 ------- 0 3.0 2.0 -1 21
r 0.705323 5 2 ping 64 ------- 0 3.0 2.0 -1 21
+ 0.8 0 5 ping 50000 ------- 0 0.0 4.0 -1 22
- 0.8 0 5 ping 50000 ------- 0 0.0 4.0 -1 22
+ 0.8 2 5 ping 30000 ------- 0 2.0 3.0 -1 23
- 0.8 2 5 ping 30000 ------- 0 2.0 3.0 -1 23
r 0.80112 2 5 ping 30000 ------- 0 2.0 3.0 -1 23
+ 0.80112 5 3 ping 30000 ------- 0 2.0 3.0 -1 23
- 0.80112 5 3 ping 30000 ------- 0 2.0 3.0 -1 23
r 0.801398 0 5 ping 50000 ------- 0 0.0 4.0 -1 22
+ 0.801398 5 4 ping 50000 ------- 0 0.0 4.0 -1 22
d 0.801398 5 4 ping 50000 ------- 0 0.0 4.0 -1 22
r 0.80332 5 3 ping 30000 ------- 0 2.0 3.0 -1 23
+ 0.80332 3 5 ping 64 ------- 0 3.0 2.0 -1 24
- 0.80332 3 5 ping 64 ------- 0 3.0 2.0 -1 24
r 0.804323 3 5 ping 64 ------- 0 3.0 2.0 -1 24
+ 0.804323 5 2 ping 64 ------- 0 3.0 2.0 -1 24
- 0.804323 5 2 ping 64 ------- 0 3.0 2.0 -1 24
r 0.805323 5 2 ping 64 ------- 0 3.0 2.0 -1 24
+ 0.9 0 5 ping 50000 ------- 0 0.0 4.0 -1 25
- 0.9 0 5 ping 50000 ------- 0 0.0 4.0 -1 25
+ 0.9 2 5 ping 30000 ------- 0 2.0 3.0 -1 26
- 0.9 2 5 ping 30000 ------- 0 2.0 3.0 -1 26
r 0.90112 2 5 ping 30000 ------- 0 2.0 3.0 -1 26
+ 0.90112 5 3 ping 30000 ------- 0 2.0 3.0 -1 26
- 0.90112 5 3 ping 30000 ------- 0 2.0 3.0 -1 26
- 0.901398 5 4 ping 50000 ------- 0 0.0 4.0 -1 12
r 0.901398 0 5 ping 50000 ------- 0 0.0 4.0 -1 25
+ 0.901398 5 4 ping 50000 ------- 0 0.0 4.0 -1 25
r 0.902398 5 4 ping 50000 ------- 0 0.0 4.0 -1 3
+ 0.902398 4 5 ping 64 ------- 0 4.0 0.0 -1 27
- 0.902398 4 5 ping 64 ------- 0 4.0 0.0 -1 27
r 0.90332 5 3 ping 30000 ------- 0 2.0 3.0 -1 26
+ 0.90332 3 5 ping 64 ------- 0 3.0 2.0 -1 28
- 0.90332 3 5 ping 64 ------- 0 3.0 2.0 -1 28
r 0.90391 4 5 ping 64 ------- 0 4.0 0.0 -1 27
+ 0.90391 5 0 ping 64 ------- 0 4.0 0.0 -1 27
- 0.90391 5 0 ping 64 ------- 0 4.0 0.0 -1 27
r 0.904323 3 5 ping 64 ------- 0 3.0 2.0 -1 28
+ 0.904323 5 2 ping 64 ------- 0 3.0 2.0 -1 28
- 0.904323 5 2 ping 64 ------- 0 3.0 2.0 -1 28
r 0.904911 5 0 ping 64 ------- 0 4.0 0.0 -1 27
r 0.905323 5 2 ping 64 ------- 0 3.0 2.0 -1 28
+ 1 0 5 ping 50000 ------- 0 0.0 4.0 -1 29
- 1 0 5 ping 50000 ------- 0 0.0 4.0 -1 29
+ 1 2 5 ping 30000 ------- 0 2.0 3.0 -1 30
- 1 2 5 ping 30000 ------- 0 2.0 3.0 -1 30
r 1.00112 2 5 ping 30000 ------- 0 2.0 3.0 -1 30
+ 1.00112 5 3 ping 30000 ------- 0 2.0 3.0 -1 30
- 1.00112 5 3 ping 30000 ------- 0 2.0 3.0 -1 30
r 1.001398 0 5 ping 50000 ------- 0 0.0 4.0 -1 29
+ 1.001398 5 4 ping 50000 ------- 0 0.0 4.0 -1 29
d 1.001398 5 4 ping 50000 ------- 0 0.0 4.0 -1 29
r 1.00332 5 3 ping 30000 ------- 0 2.0 3.0 -1 30
+ 1.00332 3 5 ping 64 ------- 0 3.0 2.0 -1 31
- 1.00332 3 5 ping 64 ------- 0 3.0 2.0 -1 31
r 1.004323 3 5 ping 64 ------- 0 3.0 2.0 -1 31
+ 1.004323 5 2 ping 64 ------- 0 3.0 2.0 -1 31
- 1.004323 5 2 ping 64 ------- 0 3.0 2.0 -1 31
r 1.005323 5 2 ping 64 ------- 0 3.0 2.0 -1 31
+ 1.1 0 5 ping 50000 ------- 0 0.0 4.0 -1 32
- 1.1 0 5 ping 50000 ------- 0 0.0 4.0 -1 32
+ 1.1 2 5 ping 30000 ------- 0 2.0 3.0 -1 33
- 1.1 2 5 ping 30000 ------- 0 2.0 3.0 -1 33
r 1.10112 2 5 ping 30000 ------- 0 2.0 3.0 -1 33
+ 1.10112 5 3 ping 30000 ------- 0 2.0 3.0 -1 33
- 1.10112 5 3 ping 30000 ------- 0 2.0 3.0 -1 33
r 1.101398 0 5 ping 50000 ------- 0 0.0 4.0 -1 32
+ 1.101398 5 4 ping 50000 ------- 0 0.0 4.0 -1 32
d 1.101398 5 4 ping 50000 ------- 0 0.0 4.0 -1 32
r 1.10332 5 3 ping 30000 ------- 0 2.0 3.0 -1 33
+ 1.10332 3 5 ping 64 ------- 0 3.0 2.0 -1 34
- 1.10332 3 5 ping 64 ------- 0 3.0 2.0 -1 34
r 1.104323 3 5 ping 64 ------- 0 3.0 2.0 -1 34
+ 1.104323 5 2 ping 64 ------- 0 3.0 2.0 -1 34
- 1.104323 5 2 ping 64 ------- 0 3.0 2.0 -1 34
r 1.105323 5 2 ping 64 ------- 0 3.0 2.0 -1 34
+ 1.2 0 5 ping 50000 ------- 0 0.0 4.0 -1 35
- 1.2 0 5 ping 50000 ------- 0 0.0 4.0 -1 35
+ 1.2 2 5 ping 30000 ------- 0 2.0 3.0 -1 36
- 1.2 2 5 ping 30000 ------- 0 2.0 3.0 -1 36
r 1.20112 2 5 ping 30000 ------- 0 2.0 3.0 -1 36
+ 1.20112 5 3 ping 30000 ------- 0 2.0 3.0 -1 36
- 1.20112 5 3 ping 30000 ------- 0 2.0 3.0 -1 36
r 1.201398 0 5 ping 50000 ------- 0 0.0 4.0 -1 35
+ 1.201398 5 4 ping 50000 ------- 0 0.0 4.0 -1 35
d 1.201398 5 4 ping 50000 ------- 0 0.0 4.0 -1 35
r 1.20332 5 3 ping 30000 ------- 0 2.0 3.0 -1 36
+ 1.20332 3 5 ping 64 ------- 0 3.0 2.0 -1 37
- 1.20332 3 5 ping 64 ------- 0 3.0 2.0 -1 37
r 1.204323 3 5 ping 64 ------- 0 3.0 2.0 -1 37
+ 1.204323 5 2 ping 64 ------- 0 3.0 2.0 -1 37
- 1.204323 5 2 ping 64 ------- 0 3.0 2.0 -1 37
r 1.205323 5 2 ping 64 ------- 0 3.0 2.0 -1 37
+ 1.3 0 5 ping 50000 ------- 0 0.0 4.0 -1 38
- 1.3 0 5 ping 50000 ------- 0 0.0 4.0 -1 38
+ 1.3 2 5 ping 30000 ------- 0 2.0 3.0 -1 39
- 1.3 2 5 ping 30000 ------- 0 2.0 3.0 -1 39
r 1.30112 2 5 ping 30000 ------- 0 2.0 3.0 -1 39
+ 1.30112 5 3 ping 30000 ------- 0 2.0 3.0 -1 39
- 1.30112 5 3 ping 30000 ------- 0 2.0 3.0 -1 39
- 1.301398 5 4 ping 50000 ------- 0 0.0 4.0 -1 25
r 1.301398 0 5 ping 50000 ------- 0 0.0 4.0 -1 38
+ 1.301398 5 4 ping 50000 ------- 0 0.0 4.0 -1 38
r 1.302398 5 4 ping 50000 ------- 0 0.0 4.0 -1 12
+ 1.302398 4 5 ping 64 ------- 0 4.0 0.0 -1 40
- 1.302398 4 5 ping 64 ------- 0 4.0 0.0 -1 40
r 1.30332 5 3 ping 30000 ------- 0 2.0 3.0 -1 39
+ 1.30332 3 5 ping 64 ------- 0 3.0 2.0 -1 41
- 1.30332 3 5 ping 64 ------- 0 3.0 2.0 -1 41
r 1.30391 4 5 ping 64 ------- 0 4.0 0.0 -1 40
+ 1.30391 5 0 ping 64 ------- 0 4.0 0.0 -1 40
- 1.30391 5 0 ping 64 ------- 0 4.0 0.0 -1 40
r 1.304323 3 5 ping 64 ------- 0 3.0 2.0 -1 41
+ 1.304323 5 2 ping 64 ------- 0 3.0 2.0 -1 41
- 1.304323 5 2 ping 64 ------- 0 3.0 2.0 -1 41
r 1.304911 5 0 ping 64 ------- 0 4.0 0.0 -1 40
r 1.305323 5 2 ping 64 ------- 0 3.0 2.0 -1 41
+ 1.4 0 5 ping 50000 ------- 0 0.0 4.0 -1 42
- 1.4 0 5 ping 50000 ------- 0 0.0 4.0 -1 42
+ 1.4 2 5 ping 30000 ------- 0 2.0 3.0 -1 43
- 1.4 2 5 ping 30000 ------- 0 2.0 3.0 -1 43
r 1.40112 2 5 ping 30000 ------- 0 2.0 3.0 -1 43
+ 1.40112 5 3 ping 30000 ------- 0 2.0 3.0 -1 43
- 1.40112 5 3 ping 30000 ------- 0 2.0 3.0 -1 43
r 1.401398 0 5 ping 50000 ------- 0 0.0 4.0 -1 42
+ 1.401398 5 4 ping 50000 ------- 0 0.0 4.0 -1 42
d 1.401398 5 4 ping 50000 ------- 0 0.0 4.0 -1 42
r 1.40332 5 3 ping 30000 ------- 0 2.0 3.0 -1 43
+ 1.40332 3 5 ping 64 ------- 0 3.0 2.0 -1 44
- 1.40332 3 5 ping 64 ------- 0 3.0 2.0 -1 44
r 1.404323 3 5 ping 64 ------- 0 3.0 2.0 -1 44
+ 1.404323 5 2 ping 64 ------- 0 3.0 2.0 -1 44
- 1.404323 5 2 ping 64 ------- 0 3.0 2.0 -1 44
r 1.405323 5 2 ping 64 ------- 0 3.0 2.0 -1 44
+ 1.5 0 5 ping 50000 ------- 0 0.0 4.0 -1 45
- 1.5 0 5 ping 50000 ------- 0 0.0 4.0 -1 45
+ 1.5 2 5 ping 30000 ------- 0 2.0 3.0 -1 46
- 1.5 2 5 ping 30000 ------- 0 2.0 3.0 -1 46
r 1.50112 2 5 ping 30000 ------- 0 2.0 3.0 -1 46
+ 1.50112 5 3 ping 30000 ------- 0 2.0 3.0 -1 46
- 1.50112 5 3 ping 30000 ------- 0 2.0 3.0 -1 46
r 1.501398 0 5 ping 50000 ------- 0 0.0 4.0 -1 45
+ 1.501398 5 4 ping 50000 ------- 0 0.0 4.0 -1 45
d 1.501398 5 4 ping 50000 ------- 0 0.0 4.0 -1 45
r 1.50332 5 3 ping 30000 ------- 0 2.0 3.0 -1 46
+ 1.50332 3 5 ping 64 ------- 0 3.0 2.0 -1 47
- 1.50332 3 5 ping 64 ------- 0 3.0 2.0 -1 47
r 1.504323 3 5 ping 64 ------- 0 3.0 2.0 -1 47
+ 1.504323 5 2 ping 64 ------- 0 3.0 2.0 -1 47
- 1.504323 5 2 ping 64 ------- 0 3.0 2.0 -1 47
r 1.505323 5 2 ping 64 ------- 0 3.0 2.0 -1 47
+ 1.6 0 5 ping 50000 ------- 0 0.0 4.0 -1 48
- 1.6 0 5 ping 50000 ------- 0 0.0 4.0 -1 48
r 1.601398 0 5 ping 50000 ------- 0 0.0 4.0 -1 48
+ 1.601398 5 4 ping 50000 ------- 0 0.0 4.0 -1 48
d 1.601398 5 4 ping 50000 ------- 0 0.0 4.0 -1 48
+ 1.7 0 5 ping 50000 ------- 0 0.0 4.0 -1 49
- 1.7 0 5 ping 50000 ------- 0 0.0 4.0 -1 49
- 1.701398 5 4 ping 50000 ------- 0 0.0 4.0 -1 38
r 1.701398 0 5 ping 50000 ------- 0 0.0 4.0 -1 49
+ 1.701398 5 4 ping 50000 ------- 0 0.0 4.0 -1 49
r 1.702398 5 4 ping 50000 ------- 0 0.0 4.0 -1 25
+ 1.702398 4 5 ping 64 ------- 0 4.0 0.0 -1 50
- 1.702398 4 5 ping 64 ------- 0 4.0 0.0 -1 50
r 1.70391 4 5 ping 64 ------- 0 4.0 0.0 -1 50
+ 1.70391 5 0 ping 64 ------- 0 4.0 0.0 -1 50
- 1.70391 5 0 ping 64 ------- 0 4.0 0.0 -1 50
r 1.704911 5 0 ping 64 ------- 0 4.0 0.0 -1 50
+ 1.8 0 5 ping 50000 ------- 0 0.0 4.0 -1 51
- 1.8 0 5 ping 50000 ------- 0 0.0 4.0 -1 51
r 1.801398 0 5 ping 50000 ------- 0 0.0 4.0 -1 51
+ 1.801398 5 4 ping 50000 ------- 0 0.0 4.0 -1 51
d 1.801398 5 4 ping 50000 ------- 0 0.0 4.0 -1 51
+ 1.9 0 5 ping 50000 ------- 0 0.0 4.0 -1 52
- 1.9 0 5 ping 50000 ------- 0 0.0 4.0 -1 52
r 1.901398 0 5 ping 50000 ------- 0 0.0 4.0 -1 52
+ 1.901398 5 4 ping 50000 ------- 0 0.0 4.0 -1 52
d 1.901398 5 4 ping 50000 ------- 0 0.0 4.0 -1 52
+ 2 0 5 ping 50000 ------- 0 0.0 4.0 -1 53
- 2 0 5 ping 50000 ------- 0 0.0 4.0 -1 53
r 2.001398 0 5 ping 50000 ------- 0 0.0 4.0 -1 53
+ 2.001398 5 4 ping 50000 ------- 0 0.0 4.0 -1 53
d 2.001398 5 4 ping 50000 ------- 0 0.0 4.0 -1 53
+ 2.1 0 5 ping 50000 ------- 0 0.0 4.0 -1 54
- 2.1 0 5 ping 50000 ------- 0 0.0 4.0 -1 54
- 2.101398 5 4 ping 50000 ------- 0 0.0 4.0 -1 49
r 2.101398 0 5 ping 50000 ------- 0 0.0 4.0 -1 54
+ 2.101398 5 4 ping 50000 ------- 0 0.0 4.0 -1 54
r 2.102398 5 4 ping 50000 ------- 0 0.0 4.0 -1 38
+ 2.102398 4 5 ping 64 ------- 0 4.0 0.0 -1 55
- 2.102398 4 5 ping 64 ------- 0 4.0 0.0 -1 55
r 2.10391 4 5 ping 64 ------- 0 4.0 0.0 -1 55
+ 2.10391 5 0 ping 64 ------- 0 4.0 0.0 -1 55
- 2.10391 5 0 ping 64 ------- 0 4.0 0.0 -1 55
r 2.104911 5 0 ping 64 ------- 0 4.0 0.0 -1 55
+ 2.2 0 5 ping 50000 ------- 0 0.0 4.0 -1 56
- 2.2 0 5 ping 50000 ------- 0 0.0 4.0 -1 56
r 2.201398 0 5 ping 50000 ------- 0 0.0 4.0 -1 56
+ 2.201398 5 4 ping 50000 ------- 0 0.0 4.0 -1 56
d 2.201398 5 4 ping 50000 ------- 0 0.0 4.0 -1 56
+ 2.3 0 5 ping 50000 ------- 0 0.0 4.0 -1 57
- 2.3 0 5 ping 50000 ------- 0 0.0 4.0 -1 57
r 2.301398 0 5 ping 50000 ------- 0 0.0 4.0 -1 57
+ 2.301398 5 4 ping 50000 ------- 0 0.0 4.0 -1 57
d 2.301398 5 4 ping 50000 ------- 0 0.0 4.0 -1 57
+ 2.4 0 5 ping 50000 ------- 0 0.0 4.0 -1 58
- 2.4 0 5 ping 50000 ------- 0 0.0 4.0 -1 58
r 2.401398 0 5 ping 50000 ------- 0 0.0 4.0 -1 58
+ 2.401398 5 4 ping 50000 ------- 0 0.0 4.0 -1 58
d 2.401398 5 4 ping 50000 ------- 0 0.0 4.0 -1 58
+ 2.5 0 5 ping 50000 ------- 0 0.0 4.0 -1 59
- 2.5 0 5 ping 50000 ------- 0 0.0 4.0 -1 59
- 2.501398 5 4 ping 50000 ------- 0 0.0 4.0 -1 54
r 2.501398 0 5 ping 50000 ------- 0 0.0 4.0 -1 59
+ 2.501398 5 4 ping 50000 ------- 0 0.0 4.0 -1 59
r 2.502398 5 4 ping 50000 ------- 0 0.0 4.0 -1 49
+ 2.502398 4 5 ping 64 ------- 0 4.0 0.0 -1 60
- 2.502398 4 5 ping 64 ------- 0 4.0 0.0 -1 60
r 2.50391 4 5 ping 64 ------- 0 4.0 0.0 -1 60
+ 2.50391 5 0 ping 64 ------- 0 4.0 0.0 -1 60
- 2.50391 5 0 ping 64 ------- 0 4.0 0.0 -1 60
r 2.504911 5 0 ping 64 ------- 0 4.0 0.0 -1 60
+ 2.6 0 5 ping 50000 ------- 0 0.0 4.0 -1 61
- 2.6 0 5 ping 50000 ------- 0 0.0 4.0 -1 61
r 2.601398 0 5 ping 50000 ------- 0 0.0 4.0 -1 61
+ 2.601398 5 4 ping 50000 ------- 0 0.0 4.0 -1 61
d 2.601398 5 4 ping 50000 ------- 0 0.0 4.0 -1 61
+ 2.7 0 5 ping 50000 ------- 0 0.0 4.0 -1 62
- 2.7 0 5 ping 50000 ------- 0 0.0 4.0 -1 62
r 2.701398 0 5 ping 50000 ------- 0 0.0 4.0 -1 62
+ 2.701398 5 4 ping 50000 ------- 0 0.0 4.0 -1 62
d 2.701398 5 4 ping 50000 ------- 0 0.0 4.0 -1 62
+ 2.8 0 5 ping 50000 ------- 0 0.0 4.0 -1 63
- 2.8 0 5 ping 50000 ------- 0 0.0 4.0 -1 63
r 2.801398 0 5 ping 50000 ------- 0 0.0 4.0 -1 63
+ 2.801398 5 4 ping 50000 ------- 0 0.0 4.0 -1 63
d 2.801398 5 4 ping 50000 ------- 0 0.0 4.0 -1 63
+ 2.9 0 5 ping 50000 ------- 0 0.0 4.0 -1 64
- 2.9 0 5 ping 50000 ------- 0 0.0 4.0 -1 64
- 2.901398 5 4 ping 50000 ------- 0 0.0 4.0 -1 59
r 2.901398 0 5 ping 50000 ------- 0 0.0 4.0 -1 64
+ 2.901398 5 4 ping 50000 ------- 0 0.0 4.0 -1 64
r 2.902398 5 4 ping 50000 ------- 0 0.0 4.0 -1 54
+ 2.902398 4 5 ping 64 ------- 0 4.0 0.0 -1 65
- 2.902398 4 5 ping 64 ------- 0 4.0 0.0 -1 65
r 2.90391 4 5 ping 64 ------- 0 4.0 0.0 -1 65
+ 2.90391 5 0 ping 64 ------- 0 4.0 0.0 -1 65
- 2.90391 5 0 ping 64 ------- 0 4.0 0.0 -1 65
r 2.904911 5 0 ping 64 ------- 0 4.0 0.0 -1 65
