n -t 0 -s 0 -S DLABEL -l "Source 1" -L ""
n -t 0 -s 1 -S DLABEL -l "Source 2" -L ""
n -t 0 -s 2 -S DLABEL -l "Destination" -L ""
V -t * -v 1.0a5 -a 0
A -t * -n 1 -p 0 -o 0x7fffffff -c 30 -a 1
A -t * -h 1 -m 1073741823 -s 0
c -t * -i 1 -n red
c -t * -i 2 -n blue
n -t * -a 0 -s 0 -S UP -v circle -c black -i black
n -t * -a 1 -s 1 -S UP -v circle -c black -i black
n -t * -a 2 -s 2 -S UP -v circle -c black -i black
l -t * -s 0 -d 2 -S UP -r 10000 -D 0.10000000000000001 -c black
l -t * -s 1 -d 2 -S UP -r 5000000 -D 0.20000000000000001 -c black
+ -t 0.001 -s 0 -d 2 -p cbr -e 210 -c 1 -i 0 -a 1 -x {0.0 2.0 0 ------- null}
- -t 0.001 -s 0 -d 2 -p cbr -e 210 -c 1 -i 0 -a 1 -x {0.0 2.0 0 ------- null}
h -t 0.001 -s 0 -d 2 -p cbr -e 210 -c 1 -i 0 -a 1 -x {0.0 2.0 -1 ------- null}
+ -t 0.001 -s 1 -d 2 -p cbr -e 500 -c 2 -i 1 -a 2 -x {1.0 2.0 0 ------- null}
- -t 0.001 -s 1 -d 2 -p cbr -e 500 -c 2 -i 1 -a 2 -x {1.0 2.0 0 ------- null}
h -t 0.001 -s 1 -d 2 -p cbr -e 500 -c 2 -i 1 -a 2 -x {1.0 2.0 -1 ------- null}
+ -t 0.002 -s 1 -d 2 -p cbr -e 500 -c 2 -i 2 -a 2 -x {1.0 2.0 1 ------- null}
- -t 0.002 -s 1 -d 2 -p cbr -e 500 -c 2 -i 2 -a 2 -x {1.0 2.0 1 ------- null}
h -t 0.002 -s 1 -d 2 -p cbr -e 500 -c 2 -i 2 -a 2 -x {1.0 2.0 -1 ------- null}
+ -t 0.003 -s 1 -d 2 -p cbr -e 500 -c 2 -i 3 -a 2 -x {1.0 2.0 2 ------- null}
- -t 0.003 -s 1 -d 2 -p cbr -e 500 -c 2 -i 3 -a 2 -x {1.0 2.0 2 ------- null}
h -t 0.003 -s 1 -d 2 -p cbr -e 500 -c 2 -i 3 -a 2 -x {1.0 2.0 -1 ------- null}
+ -t 0.004 -s 1 -d 2 -p cbr -e 500 -c 2 -i 4 -a 2 -x {1.0 2.0 3 ------- null}
- -t 0.004 -s 1 -d 2 -p cbr -e 500 -c 2 -i 4 -a 2 -x {1.0 2.0 3 ------- null}
h -t 0.004 -s 1 -d 2 -p cbr -e 500 -c 2 -i 4 -a 2 -x {1.0 2.0 -1 ------- null}
+ -t 0.00475 -s 0 -d 2 -p cbr -e 210 -c 1 -i 5 -a 1 -x {0.0 2.0 1 ------- null}
+ -t 0.005 -s 1 -d 2 -p cbr -e 500 -c 2 -i 6 -a 2 -x {1.0 2.0 4 ------- null}
- -t 0.005 -s 1 -d 2 -p cbr -e 500 -c 2 -i 6 -a 2 -x {1.0 2.0 4 ------- null}
h -t 0.005 -s 1 -d 2 -p cbr -e 500 -c 2 -i 6 -a 2 -x {1.0 2.0 -1 ------- null}
+ -t 0.006 -s 1 -d 2 -p cbr -e 500 -c 2 -i 7 -a 2 -x {1.0 2.0 5 ------- null}
- -t 0.006 -s 1 -d 2 -p cbr -e 500 -c 2 -i 7 -a 2 -x {1.0 2.0 5 ------- null}
h -t 0.006 -s 1 -d 2 -p cbr -e 500 -c 2 -i 7 -a 2 -x {1.0 2.0 -1 ------- null}
+ -t 0.007 -s 1 -d 2 -p cbr -e 500 -c 2 -i 8 -a 2 -x {1.0 2.0 6 ------- null}
- -t 0.007 -s 1 -d 2 -p cbr -e 500 -c 2 -i 8 -a 2 -x {1.0 2.0 6 ------- null}
h -t 0.007 -s 1 -d 2 -p cbr -e 500 -c 2 -i 8 -a 2 -x {1.0 2.0 -1 ------- null}
+ -t 0.008 -s 1 -d 2 -p cbr -e 500 -c 2 -i 9 -a 2 -x {1.0 2.0 7 ------- null}
- -t 0.008 -s 1 -d 2 -p cbr -e 500 -c 2 -i 9 -a 2 -x {1.0 2.0 7 ------- null}
h -t 0.008 -s 1 -d 2 -p cbr -e 500 -c 2 -i 9 -a 2 -x {1.0 2.0 -1 ------- null}
+ -t 0.0085 -s 0 -d 2 -p cbr -e 210 -c 1 -i 10 -a 1 -x {0.0 2.0 2 ------- null}
+ -t 0.009 -s 1 -d 2 -p cbr -e 500 -c 2 -i 11 -a 2 -x {1.0 2.0 8 ------- null}
- -t 0.009 -s 1 -d 2 -p cbr -e 500 -c 2 -i 11 -a 2 -x {1.0 2.0 8 ------- null}
h -t 0.009 -s 1 -d 2 -p cbr -e 500 -c 2 -i 11 -a 2 -x {1.0 2.0 -1 ------- null}
+ -t 0.01 -s 1 -d 2 -p cbr -e 500 -c 2 -i 12 -a 2 -x {1.0 2.0 9 ------- null}
- -t 0.01 -s 1 -d 2 -p cbr -e 500 -c 2 -i 12 -a 2 -x {1.0 2.0 9 ------- null}
h -t 0.01 -s 1 -d 2 -p cbr -e 500 -c 2 -i 12 -a 2 -x {1.0 2.0 -1 ------- null}
+ -t 0.011 -s 1 -d 2 -p cbr -e 500 -c 2 -i 13 -a 2 -x {1.0 2.0 10 ------- null}
- -t 0.011 -s 1 -d 2 -p cbr -e 500 -c 2 -i 13 -a 2 -x {1.0 2.0 10 ------- null}
h -t 0.011 -s 1 -d 2 -p cbr -e 500 -c 2 -i 13 -a 2 -x {1.0 2.0 -1 ------- null}
+ -t 0.012 -s 1 -d 2 -p cbr -e 500 -c 2 -i 14 -a 2 -x {1.0 2.0 11 ------- null}
- -t 0.012 -s 1 -d 2 -p cbr -e 500 -c 2 -i 14 -a 2 -x {1.0 2.0 11 ------- null}
h -t 0.012 -s 1 -d 2 -p cbr -e 500 -c 2 -i 14 -a 2 -x {1.0 2.0 -1 ------- null}
+ -t 0.01225 -s 0 -d 2 -p cbr -e 210 -c 1 -i 15 -a 1 -x {0.0 2.0 3 ------- null}
+ -t 0.013 -s 1 -d 2 -p cbr -e 500 -c 2 -i 16 -a 2 -x {1.0 2.0 12 ------- null}
- -t 0.013 -s 1 -d 2 -p cbr -e 500 -c 2 -i 16 -a 2 -x {1.0 2.0 12 ------- null}
h -t 0.013 -s 1 -d 2 -p cbr -e 500 -c 2 -i 16 -a 2 -x {1.0 2.0 -1 ------- null}
+ -t 0.014 -s 1 -d 2 -p cbr -e 500 -c 2 -i 17 -a 2 -x {1.0 2.0 13 ------- null}
- -t 0.014 -s 1 -d 2 -p cbr -e 500 -c 2 -i 17 -a 2 -x {1.0 2.0 13 ------- null}
h -t 0.014 -s 1 -d 2 -p cbr -e 500 -c 2 -i 17 -a 2 -x {1.0 2.0 -1 ------- null}
+ -t 0.015 -s 1 -d 2 -p cbr -e 500 -c 2 -i 18 -a 2 -x {1.0 2.0 14 ------- null}
- -t 0.015 -s 1 -d 2 -p cbr -e 500 -c 2 -i 18 -a 2 -x {1.0 2.0 14 ------- null}
h -t 0.015 -s 1 -d 2 -p cbr -e 500 -c 2 -i 18 -a 2 -x {1.0 2.0 -1 ------- null}
+ -t 0.016 -s 0 -d 2 -p cbr -e 210 -c 1 -i 19 -a 1 -x {0.0 2.0 4 ------- null}
+ -t 0.016 -s 1 -d 2 -p cbr -e 500 -c 2 -i 20 -a 2 -x {1.0 2.0 15 ------- null}
- -t 0.016 -s 1 -d 2 -p cbr -e 500 -c 2 -i 20 -a 2 -x {1.0 2.0 15 ------- null}
h -t 0.016 -s 1 -d 2 -p cbr -e 500 -c 2 -i 20 -a 2 -x {1.0 2.0 -1 ------- null}
+ -t 0.017 -s 1 -d 2 -p cbr -e 500 -c 2 -i 21 -a 2 -x {1.0 2.0 16 ------- null}
- -t 0.017 -s 1 -d 2 -p cbr -e 500 -c 2 -i 21 -a 2 -x {1.0 2.0 16 ------- null}
h -t 0.017 -s 1 -d 2 -p cbr -e 500 -c 2 -i 21 -a 2 -x {1.0 2.0 -1 ------- null}
+ -t 0.018 -s 1 -d 2 -p cbr -e 500 -c 2 -i 22 -a 2 -x {1.0 2.0 17 ------- null}
- -t 0.018 -s 1 -d 2 -p cbr -e 500 -c 2 -i 22 -a 2 -x {1.0 2.0 17 ------- null}
h -t 0.018 -s 1 -d 2 -p cbr -e 500 -c 2 -i 22 -a 2 -x {1.0 2.0 -1 ------- null}
+ -t 0.019 -s 1 -d 2 -p cbr -e 500 -c 2 -i 23 -a 2 -x {1.0 2.0 18 ------- null}
- -t 0.019 -s 1 -d 2 -p cbr -e 500 -c 2 -i 23 -a 2 -x {1.0 2.0 18 ------- null}
h -t 0.019 -s 1 -d 2 -p cbr -e 500 -c 2 -i 23 -a 2 -x {1.0 2.0 -1 ------- null}
+ -t 0.01975 -s 0 -d 2 -p cbr -e 210 -c 1 -i 24 -a 1 -x {0.0 2.0 5 ------- null}
+ -t 0.02 -s 1 -d 2 -p cbr -e 500 -c 2 -i 25 -a 2 -x {1.0 2.0 19 ------- null}
- -t 0.02 -s 1 -d 2 -p cbr -e 500 -c 2 -i 25 -a 2 -x {1.0 2.0 19 ------- null}
h -t 0.02 -s 1 -d 2 -p cbr -e 500 -c 2 -i 25 -a 2 -x {1.0 2.0 -1 ------- null}
+ -t 0.021 -s 1 -d 2 -p cbr -e 500 -c 2 -i 26 -a 2 -x {1.0 2.0 20 ------- null}
- -t 0.021 -s 1 -d 2 -p cbr -e 500 -c 2 -i 26 -a 2 -x {1.0 2.0 20 ------- null}
h -t 0.021 -s 1 -d 2 -p cbr -e 500 -c 2 -i 26 -a 2 -x {1.0 2.0 -1 ------- null}
+ -t 0.022 -s 1 -d 2 -p cbr -e 500 -c 2 -i 27 -a 2 -x {1.0 2.0 21 ------- null}
- -t 0.022 -s 1 -d 2 -p cbr -e 500 -c 2 -i 27 -a 2 -x {1.0 2.0 21 ------- null}
h -t 0.022 -s 1 -d 2 -p cbr -e 500 -c 2 -i 27 -a 2 -x {1.0 2.0 -1 ------- null}
+ -t 0.023 -s 1 -d 2 -p cbr -e 500 -c 2 -i 28 -a 2 -x {1.0 2.0 22 ------- null}
- -t 0.023 -s 1 -d 2 -p cbr -e 500 -c 2 -i 28 -a 2 -x {1.0 2.0 22 ------- null}
h -t 0.023 -s 1 -d 2 -p cbr -e 500 -c 2 -i 28 -a 2 -x {1.0 2.0 -1 ------- null}
+ -t 0.0235 -s 0 -d 2 -p cbr -e 210 -c 1 -i 29 -a 1 -x {0.0 2.0 6 ------- null}
+ -t 0.024 -s 1 -d 2 -p cbr -e 500 -c 2 -i 30 -a 2 -x {1.0 2.0 23 ------- null}
- -t 0.024 -s 1 -d 2 -p cbr -e 500 -c 2 -i 30 -a 2 -x {1.0 2.0 23 ------- null}
h -t 0.024 -s 1 -d 2 -p cbr -e 500 -c 2 -i 30 -a 2 -x {1.0 2.0 -1 ------- null}
+ -t 0.025 -s 1 -d 2 -p cbr -e 500 -c 2 -i 31 -a 2 -x {1.0 2.0 24 ------- null}
- -t 0.025 -s 1 -d 2 -p cbr -e 500 -c 2 -i 31 -a 2 -x {1.0 2.0 24 ------- null}
h -t 0.025 -s 1 -d 2 -p cbr -e 500 -c 2 -i 31 -a 2 -x {1.0 2.0 -1 ------- null}
+ -t 0.026 -s 1 -d 2 -p cbr -e 500 -c 2 -i 32 -a 2 -x {1.0 2.0 25 ------- null}
- -t 0.026 -s 1 -d 2 -p cbr -e 500 -c 2 -i 32 -a 2 -x {1.0 2.0 25 ------- null}
h -t 0.026 -s 1 -d 2 -p cbr -e 500 -c 2 -i 32 -a 2 -x {1.0 2.0 -1 ------- null}
+ -t 0.027 -s 1 -d 2 -p cbr -e 500 -c 2 -i 33 -a 2 -x {1.0 2.0 26 ------- null}
- -t 0.027 -s 1 -d 2 -p cbr -e 500 -c 2 -i 33 -a 2 -x {1.0 2.0 26 ------- null}
h -t 0.027 -s 1 -d 2 -p cbr -e 500 -c 2 -i 33 -a 2 -x {1.0 2.0 -1 ------- null}
+ -t 0.02725 -s 0 -d 2 -p cbr -e 210 -c 1 -i 34 -a 1 -x {0.0 2.0 7 ------- null}
+ -t 0.028 -s 1 -d 2 -p cbr -e 500 -c 2 -i 35 -a 2 -x {1.0 2.0 27 ------- null}
- -t 0.028 -s 1 -d 2 -p cbr -e 500 -c 2 -i 35 -a 2 -x {1.0 2.0 27 ------- null}
h -t 0.028 -s 1 -d 2 -p cbr -e 500 -c 2 -i 35 -a 2 -x {1.0 2.0 -1 ------- null}
+ -t 0.029 -s 1 -d 2 -p cbr -e 500 -c 2 -i 36 -a 2 -x {1.0 2.0 28 ------- null}
- -t 0.029 -s 1 -d 2 -p cbr -e 500 -c 2 -i 36 -a 2 -x {1.0 2.0 28 ------- null}
h -t 0.029 -s 1 -d 2 -p cbr -e 500 -c 2 -i 36 -a 2 -x {1.0 2.0 -1 ------- null}
+ -t 0.03 -s 1 -d 2 -p cbr -e 500 -c 2 -i 37 -a 2 -x {1.0 2.0 29 ------- null}
- -t 0.03 -s 1 -d 2 -p cbr -e 500 -c 2 -i 37 -a 2 -x {1.0 2.0 29 ------- null}
h -t 0.03 -s 1 -d 2 -p cbr -e 500 -c 2 -i 37 -a 2 -x {1.0 2.0 -1 ------- null}
+ -t 0.031 -s 0 -d 2 -p cbr -e 210 -c 1 -i 38 -a 1 -x {0.0 2.0 8 ------- null}
+ -t 0.031 -s 1 -d 2 -p cbr -e 500 -c 2 -i 39 -a 2 -x {1.0 2.0 30 ------- null}
- -t 0.031 -s 1 -d 2 -p cbr -e 500 -c 2 -i 39 -a 2 -x {1.0 2.0 30 ------- null}
h -t 0.031 -s 1 -d 2 -p cbr -e 500 -c 2 -i 39 -a 2 -x {1.0 2.0 -1 ------- null}
+ -t 0.032 -s 1 -d 2 -p cbr -e 500 -c 2 -i 40 -a 2 -x {1.0 2.0 31 ------- null}
- -t 0.032 -s 1 -d 2 -p cbr -e 500 -c 2 -i 40 -a 2 -x {1.0 2.0 31 ------- null}
h -t 0.032 -s 1 -d 2 -p cbr -e 500 -c 2 -i 40 -a 2 -x {1.0 2.0 -1 ------- null}
+ -t 0.033 -s 1 -d 2 -p cbr -e 500 -c 2 -i 41 -a 2 -x {1.0 2.0 32 ------- null}
- -t 0.033 -s 1 -d 2 -p cbr -e 500 -c 2 -i 41 -a 2 -x {1.0 2.0 32 ------- null}
h -t 0.033 -s 1 -d 2 -p cbr -e 500 -c 2 -i 41 -a 2 -x {1.0 2.0 -1 ------- null}
+ -t 0.034 -s 1 -d 2 -p cbr -e 500 -c 2 -i 42 -a 2 -x {1.0 2.0 33 ------- null}
- -t 0.034 -s 1 -d 2 -p cbr -e 500 -c 2 -i 42 -a 2 -x {1.0 2.0 33 ------- null}
h -t 0.034 -s 1 -d 2 -p cbr -e 500 -c 2 -i 42 -a 2 -x {1.0 2.0 -1 ------- null}
+ -t 0.03475 -s 0 -d 2 -p cbr -e 210 -c 1 -i 43 -a 1 -x {0.0 2.0 9 ------- null}
+ -t 0.035 -s 1 -d 2 -p cbr -e 500 -c 2 -i 44 -a 2 -x {1.0 2.0 34 ------- null}
- -t 0.035 -s 1 -d 2 -p cbr -e 500 -c 2 -i 44 -a 2 -x {1.0 2.0 34 ------- null}
h -t 0.035 -s 1 -d 2 -p cbr -e 500 -c 2 -i 44 -a 2 -x {1.0 2.0 -1 ------- null}
+ -t 0.036 -s 1 -d 2 -p cbr -e 500 -c 2 -i 45 -a 2 -x {1.0 2.0 35 ------- null}
- -t 0.036 -s 1 -d 2 -p cbr -e 500 -c 2 -i 45 -a 2 -x {1.0 2.0 35 ------- null}
h -t 0.036 -s 1 -d 2 -p cbr -e 500 -c 2 -i 45 -a 2 -x {1.0 2.0 -1 ------- null}
+ -t 0.037 -s 1 -d 2 -p cbr -e 500 -c 2 -i 46 -a 2 -x {1.0 2.0 36 ------- null}
- -t 0.037 -s 1 -d 2 -p cbr -e 500 -c 2 -i 46 -a 2 -x {1.0 2.0 36 ------- null}
h -t 0.037 -s 1 -d 2 -p cbr -e 500 -c 2 -i 46 -a 2 -x {1.0 2.0 -1 ------- null}
+ -t 0.038 -s 1 -d 2 -p cbr -e 500 -c 2 -i 47 -a 2 -x {1.0 2.0 37 ------- null}
- -t 0.038 -s 1 -d 2 -p cbr -e 500 -c 2 -i 47 -a 2 -x {1.0 2.0 37 ------- null}
h -t 0.038 -s 1 -d 2 -p cbr -e 500 -c 2 -i 47 -a 2 -x {1.0 2.0 -1 ------- null}
+ -t 0.0385 -s 0 -d 2 -p cbr -e 210 -c 1 -i 48 -a 1 -x {0.0 2.0 10 ------- null}
+ -t 0.039 -s 1 -d 2 -p cbr -e 500 -c 2 -i 49 -a 2 -x {1.0 2.0 38 ------- null}
- -t 0.039 -s 1 -d 2 -p cbr -e 500 -c 2 -i 49 -a 2 -x {1.0 2.0 38 ------- null}
h -t 0.039 -s 1 -d 2 -p cbr -e 500 -c 2 -i 49 -a 2 -x {1.0 2.0 -1 ------- null}
+ -t 0.04 -s 1 -d 2 -p cbr -e 500 -c 2 -i 50 -a 2 -x {1.0 2.0 39 ------- null}
- -t 0.04 -s 1 -d 2 -p cbr -e 500 -c 2 -i 50 -a 2 -x {1.0 2.0 39 ------- null}
h -t 0.04 -s 1 -d 2 -p cbr -e 500 -c 2 -i 50 -a 2 -x {1.0 2.0 -1 ------- null}
+ -t 0.041 -s 1 -d 2 -p cbr -e 500 -c 2 -i 51 -a 2 -x {1.0 2.0 40 ------- null}
- -t 0.041 -s 1 -d 2 -p cbr -e 500 -c 2 -i 51 -a 2 -x {1.0 2.0 40 ------- null}
h -t 0.041 -s 1 -d 2 -p cbr -e 500 -c 2 -i 51 -a 2 -x {1.0 2.0 -1 ------- null}
+ -t 0.042 -s 1 -d 2 -p cbr -e 500 -c 2 -i 52 -a 2 -x {1.0 2.0 41 ------- null}
- -t 0.042 -s 1 -d 2 -p cbr -e 500 -c 2 -i 52 -a 2 -x {1.0 2.0 41 ------- null}
h -t 0.042 -s 1 -d 2 -p cbr -e 500 -c 2 -i 52 -a 2 -x {1.0 2.0 -1 ------- null}
+ -t 0.04225 -s 0 -d 2 -p cbr -e 210 -c 1 -i 53 -a 1 -x {0.0 2.0 11 ------- null}
+ -t 0.043 -s 1 -d 2 -p cbr -e 500 -c 2 -i 54 -a 2 -x {1.0 2.0 42 ------- null}
- -t 0.043 -s 1 -d 2 -p cbr -e 500 -c 2 -i 54 -a 2 -x {1.0 2.0 42 ------- null}
h -t 0.043 -s 1 -d 2 -p cbr -e 500 -c 2 -i 54 -a 2 -x {1.0 2.0 -1 ------- null}
+ -t 0.044 -s 1 -d 2 -p cbr -e 500 -c 2 -i 55 -a 2 -x {1.0 2.0 43 ------- null}
- -t 0.044 -s 1 -d 2 -p cbr -e 500 -c 2 -i 55 -a 2 -x {1.0 2.0 43 ------- null}
h -t 0.044 -s 1 -d 2 -p cbr -e 500 -c 2 -i 55 -a 2 -x {1.0 2.0 -1 ------- null}
+ -t 0.045 -s 1 -d 2 -p cbr -e 500 -c 2 -i 56 -a 2 -x {1.0 2.0 44 ------- null}
- -t 0.045 -s 1 -d 2 -p cbr -e 500 -c 2 -i 56 -a 2 -x {1.0 2.0 44 ------- null}
h -t 0.045 -s 1 -d 2 -p cbr -e 500 -c 2 -i 56 -a 2 -x {1.0 2.0 -1 ------- null}
+ -t 0.046 -s 0 -d 2 -p cbr -e 210 -c 1 -i 57 -a 1 -x {0.0 2.0 12 ------- null}
+ -t 0.046 -s 1 -d 2 -p cbr -e 500 -c 2 -i 58 -a 2 -x {1.0 2.0 45 ------- null}
- -t 0.046 -s 1 -d 2 -p cbr -e 500 -c 2 -i 58 -a 2 -x {1.0 2.0 45 ------- null}
h -t 0.046 -s 1 -d 2 -p cbr -e 500 -c 2 -i 58 -a 2 -x {1.0 2.0 -1 ------- null}
+ -t 0.047 -s 1 -d 2 -p cbr -e 500 -c 2 -i 59 -a 2 -x {1.0 2.0 46 ------- null}
- -t 0.047 -s 1 -d 2 -p cbr -e 500 -c 2 -i 59 -a 2 -x {1.0 2.0 46 ------- null}
h -t 0.047 -s 1 -d 2 -p cbr -e 500 -c 2 -i 59 -a 2 -x {1.0 2.0 -1 ------- null}
+ -t 0.048 -s 1 -d 2 -p cbr -e 500 -c 2 -i 60 -a 2 -x {1.0 2.0 47 ------- null}
- -t 0.048 -s 1 -d 2 -p cbr -e 500 -c 2 -i 60 -a 2 -x {1.0 2.0 47 ------- null}
h -t 0.048 -s 1 -d 2 -p cbr -e 500 -c 2 -i 60 -a 2 -x {1.0 2.0 -1 ------- null}
+ -t 0.049 -s 1 -d 2 -p cbr -e 500 -c 2 -i 61 -a 2 -x {1.0 2.0 48 ------- null}
- -t 0.049 -s 1 -d 2 -p cbr -e 500 -c 2 -i 61 -a 2 -x {1.0 2.0 48 ------- null}
h -t 0.049 -s 1 -d 2 -p cbr -e 500 -c 2 -i 61 -a 2 -x {1.0 2.0 -1 ------- null}
+ -t 0.04975 -s 0 -d 2 -p cbr -e 210 -c 1 -i 62 -a 1 -x {0.0 2.0 13 ------- null}
+ -t 0.05 -s 1 -d 2 -p cbr -e 500 -c 2 -i 63 -a 2 -x {1.0 2.0 49 ------- null}
- -t 0.05 -s 1 -d 2 -p cbr -e 500 -c 2 -i 63 -a 2 -x {1.0 2.0 49 ------- null}
h -t 0.05 -s 1 -d 2 -p cbr -e 500 -c 2 -i 63 -a 2 -x {1.0 2.0 -1 ------- null}
+ -t 0.051 -s 1 -d 2 -p cbr -e 500 -c 2 -i 64 -a 2 -x {1.0 2.0 50 ------- null}
- -t 0.051 -s 1 -d 2 -p cbr -e 500 -c 2 -i 64 -a 2 -x {1.0 2.0 50 ------- null}
h -t 0.051 -s 1 -d 2 -p cbr -e 500 -c 2 -i 64 -a 2 -x {1.0 2.0 -1 ------- null}
+ -t 0.052 -s 1 -d 2 -p cbr -e 500 -c 2 -i 65 -a 2 -x {1.0 2.0 51 ------- null}
- -t 0.052 -s 1 -d 2 -p cbr -e 500 -c 2 -i 65 -a 2 -x {1.0 2.0 51 ------- null}
h -t 0.052 -s 1 -d 2 -p cbr -e 500 -c 2 -i 65 -a 2 -x {1.0 2.0 -1 ------- null}
+ -t 0.053 -s 1 -d 2 -p cbr -e 500 -c 2 -i 66 -a 2 -x {1.0 2.0 52 ------- null}
- -t 0.053 -s 1 -d 2 -p cbr -e 500 -c 2 -i 66 -a 2 -x {1.0 2.0 52 ------- null}
h -t 0.053 -s 1 -d 2 -p cbr -e 500 -c 2 -i 66 -a 2 -x {1.0 2.0 -1 ------- null}
+ -t 0.0535 -s 0 -d 2 -p cbr -e 210 -c 1 -i 67 -a 1 -x {0.0 2.0 14 ------- null}
+ -t 0.054 -s 1 -d 2 -p cbr -e 500 -c 2 -i 68 -a 2 -x {1.0 2.0 53 ------- null}
- -t 0.054 -s 1 -d 2 -p cbr -e 500 -c 2 -i 68 -a 2 -x {1.0 2.0 53 ------- null}
h -t 0.054 -s 1 -d 2 -p cbr -e 500 -c 2 -i 68 -a 2 -x {1.0 2.0 -1 ------- null}
+ -t 0.055 -s 1 -d 2 -p cbr -e 500 -c 2 -i 69 -a 2 -x {1.0 2.0 54 ------- null}
- -t 0.055 -s 1 -d 2 -p cbr -e 500 -c 2 -i 69 -a 2 -x {1.0 2.0 54 ------- null}
h -t 0.055 -s 1 -d 2 -p cbr -e 500 -c 2 -i 69 -a 2 -x {1.0 2.0 -1 ------- null}
+ -t 0.056 -s 1 -d 2 -p cbr -e 500 -c 2 -i 70 -a 2 -x {1.0 2.0 55 ------- null}
- -t 0.056 -s 1 -d 2 -p cbr -e 500 -c 2 -i 70 -a 2 -x {1.0 2.0 55 ------- null}
h -t 0.056 -s 1 -d 2 -p cbr -e 500 -c 2 -i 70 -a 2 -x {1.0 2.0 -1 ------- null}
+ -t 0.057 -s 1 -d 2 -p cbr -e 500 -c 2 -i 71 -a 2 -x {1.0 2.0 56 ------- null}
- -t 0.057 -s 1 -d 2 -p cbr -e 500 -c 2 -i 71 -a 2 -x {1.0 2.0 56 ------- null}
h -t 0.057 -s 1 -d 2 -p cbr -e 500 -c 2 -i 71 -a 2 -x {1.0 2.0 -1 ------- null}
+ -t 0.05725 -s 0 -d 2 -p cbr -e 210 -c 1 -i 72 -a 1 -x {0.0 2.0 15 ------- null}
+ -t 0.058 -s 1 -d 2 -p cbr -e 500 -c 2 -i 73 -a 2 -x {1.0 2.0 57 ------- null}
- -t 0.058 -s 1 -d 2 -p cbr -e 500 -c 2 -i 73 -a 2 -x {1.0 2.0 57 ------- null}
h -t 0.058 -s 1 -d 2 -p cbr -e 500 -c 2 -i 73 -a 2 -x {1.0 2.0 -1 ------- null}
+ -t 0.059 -s 1 -d 2 -p cbr -e 500 -c 2 -i 74 -a 2 -x {1.0 2.0 58 ------- null}
- -t 0.059 -s 1 -d 2 -p cbr -e 500 -c 2 -i 74 -a 2 -x {1.0 2.0 58 ------- null}
h -t 0.059 -s 1 -d 2 -p cbr -e 500 -c 2 -i 74 -a 2 -x {1.0 2.0 -1 ------- null}
+ -t 0.06 -s 1 -d 2 -p cbr -e 500 -c 2 -i 75 -a 2 -x {1.0 2.0 59 ------- null}
- -t 0.06 -s 1 -d 2 -p cbr -e 500 -c 2 -i 75 -a 2 -x {1.0 2.0 59 ------- null}
h -t 0.06 -s 1 -d 2 -p cbr -e 500 -c 2 -i 75 -a 2 -x {1.0 2.0 -1 ------- null}
+ -t 0.061 -s 0 -d 2 -p cbr -e 210 -c 1 -i 76 -a 1 -x {0.0 2.0 16 ------- null}
+ -t 0.061 -s 1 -d 2 -p cbr -e 500 -c 2 -i 77 -a 2 -x {1.0 2.0 60 ------- null}
- -t 0.061 -s 1 -d 2 -p cbr -e 500 -c 2 -i 77 -a 2 -x {1.0 2.0 60 ------- null}
h -t 0.061 -s 1 -d 2 -p cbr -e 500 -c 2 -i 77 -a 2 -x {1.0 2.0 -1 ------- null}
+ -t 0.062 -s 1 -d 2 -p cbr -e 500 -c 2 -i 78 -a 2 -x {1.0 2.0 61 ------- null}
- -t 0.062 -s 1 -d 2 -p cbr -e 500 -c 2 -i 78 -a 2 -x {1.0 2.0 61 ------- null}
h -t 0.062 -s 1 -d 2 -p cbr -e 500 -c 2 -i 78 -a 2 -x {1.0 2.0 -1 ------- null}
+ -t 0.063 -s 1 -d 2 -p cbr -e 500 -c 2 -i 79 -a 2 -x {1.0 2.0 62 ------- null}
- -t 0.063 -s 1 -d 2 -p cbr -e 500 -c 2 -i 79 -a 2 -x {1.0 2.0 62 ------- null}
h -t 0.063 -s 1 -d 2 -p cbr -e 500 -c 2 -i 79 -a 2 -x {1.0 2.0 -1 ------- null}
+ -t 0.064 -s 1 -d 2 -p cbr -e 500 -c 2 -i 80 -a 2 -x {1.0 2.0 63 ------- null}
- -t 0.064 -s 1 -d 2 -p cbr -e 500 -c 2 -i 80 -a 2 -x {1.0 2.0 63 ------- null}
h -t 0.064 -s 1 -d 2 -p cbr -e 500 -c 2 -i 80 -a 2 -x {1.0 2.0 -1 ------- null}
+ -t 0.06475 -s 0 -d 2 -p cbr -e 210 -c 1 -i 81 -a 1 -x {0.0 2.0 17 ------- null}
+ -t 0.065 -s 1 -d 2 -p cbr -e 500 -c 2 -i 82 -a 2 -x {1.0 2.0 64 ------- null}
- -t 0.065 -s 1 -d 2 -p cbr -e 500 -c 2 -i 82 -a 2 -x {1.0 2.0 64 ------- null}
h -t 0.065 -s 1 -d 2 -p cbr -e 500 -c 2 -i 82 -a 2 -x {1.0 2.0 -1 ------- null}
+ -t 0.066 -s 1 -d 2 -p cbr -e 500 -c 2 -i 83 -a 2 -x {1.0 2.0 65 ------- null}
- -t 0.066 -s 1 -d 2 -p cbr -e 500 -c 2 -i 83 -a 2 -x {1.0 2.0 65 ------- null}
h -t 0.066 -s 1 -d 2 -p cbr -e 500 -c 2 -i 83 -a 2 -x {1.0 2.0 -1 ------- null}
+ -t 0.067 -s 1 -d 2 -p cbr -e 500 -c 2 -i 84 -a 2 -x {1.0 2.0 66 ------- null}
- -t 0.067 -s 1 -d 2 -p cbr -e 500 -c 2 -i 84 -a 2 -x {1.0 2.0 66 ------- null}
h -t 0.067 -s 1 -d 2 -p cbr -e 500 -c 2 -i 84 -a 2 -x {1.0 2.0 -1 ------- null}
+ -t 0.068 -s 1 -d 2 -p cbr -e 500 -c 2 -i 85 -a 2 -x {1.0 2.0 67 ------- null}
- -t 0.068 -s 1 -d 2 -p cbr -e 500 -c 2 -i 85 -a 2 -x {1.0 2.0 67 ------- null}
h -t 0.068 -s 1 -d 2 -p cbr -e 500 -c 2 -i 85 -a 2 -x {1.0 2.0 -1 ------- null}
+ -t 0.0685 -s 0 -d 2 -p cbr -e 210 -c 1 -i 86 -a 1 -x {0.0 2.0 18 ------- null}
+ -t 0.069 -s 1 -d 2 -p cbr -e 500 -c 2 -i 87 -a 2 -x {1.0 2.0 68 ------- null}
- -t 0.069 -s 1 -d 2 -p cbr -e 500 -c 2 -i 87 -a 2 -x {1.0 2.0 68 ------- null}
h -t 0.069 -s 1 -d 2 -p cbr -e 500 -c 2 -i 87 -a 2 -x {1.0 2.0 -1 ------- null}
+ -t 0.07 -s 1 -d 2 -p cbr -e 500 -c 2 -i 88 -a 2 -x {1.0 2.0 69 ------- null}
- -t 0.07 -s 1 -d 2 -p cbr -e 500 -c 2 -i 88 -a 2 -x {1.0 2.0 69 ------- null}
h -t 0.07 -s 1 -d 2 -p cbr -e 500 -c 2 -i 88 -a 2 -x {1.0 2.0 -1 ------- null}
+ -t 0.071 -s 1 -d 2 -p cbr -e 500 -c 2 -i 89 -a 2 -x {1.0 2.0 70 ------- null}
- -t 0.071 -s 1 -d 2 -p cbr -e 500 -c 2 -i 89 -a 2 -x {1.0 2.0 70 ------- null}
h -t 0.071 -s 1 -d 2 -p cbr -e 500 -c 2 -i 89 -a 2 -x {1.0 2.0 -1 ------- null}
+ -t 0.0720000000000001 -s 1 -d 2 -p cbr -e 500 -c 2 -i 90 -a 2 -x {1.0 2.0 71 ------- null}
- -t 0.0720000000000001 -s 1 -d 2 -p cbr -e 500 -c 2 -i 90 -a 2 -x {1.0 2.0 71 ------- null}
h -t 0.0720000000000001 -s 1 -d 2 -p cbr -e 500 -c 2 -i 90 -a 2 -x {1.0 2.0 -1 ------- null}
+ -t 0.07225 -s 0 -d 2 -p cbr -e 210 -c 1 -i 91 -a 1 -x {0.0 2.0 19 ------- null}
+ -t 0.0730000000000001 -s 1 -d 2 -p cbr -e 500 -c 2 -i 92 -a 2 -x {1.0 2.0 72 ------- null}
- -t 0.0730000000000001 -s 1 -d 2 -p cbr -e 500 -c 2 -i 92 -a 2 -x {1.0 2.0 72 ------- null}
h -t 0.0730000000000001 -s 1 -d 2 -p cbr -e 500 -c 2 -i 92 -a 2 -x {1.0 2.0 -1 ------- null}
+ -t 0.0740000000000001 -s 1 -d 2 -p cbr -e 500 -c 2 -i 93 -a 2 -x {1.0 2.0 73 ------- null}
- -t 0.0740000000000001 -s 1 -d 2 -p cbr -e 500 -c 2 -i 93 -a 2 -x {1.0 2.0 73 ------- null}
h -t 0.0740000000000001 -s 1 -d 2 -p cbr -e 500 -c 2 -i 93 -a 2 -x {1.0 2.0 -1 ------- null}
+ -t 0.0750000000000001 -s 1 -d 2 -p cbr -e 500 -c 2 -i 94 -a 2 -x {1.0 2.0 74 ------- null}
- -t 0.0750000000000001 -s 1 -d 2 -p cbr -e 500 -c 2 -i 94 -a 2 -x {1.0 2.0 74 ------- null}
h -t 0.0750000000000001 -s 1 -d 2 -p cbr -e 500 -c 2 -i 94 -a 2 -x {1.0 2.0 -1 ------- null}
+ -t 0.076 -s 0 -d 2 -p cbr -e 210 -c 1 -i 95 -a 1 -x {0.0 2.0 20 ------- null}
+ -t 0.0760000000000001 -s 1 -d 2 -p cbr -e 500 -c 2 -i 96 -a 2 -x {1.0 2.0 75 ------- null}
- -t 0.0760000000000001 -s 1 -d 2 -p cbr -e 500 -c 2 -i 96 -a 2 -x {1.0 2.0 75 ------- null}
h -t 0.0760000000000001 -s 1 -d 2 -p cbr -e 500 -c 2 -i 96 -a 2 -x {1.0 2.0 -1 ------- null}
+ -t 0.0770000000000001 -s 1 -d 2 -p cbr -e 500 -c 2 -i 97 -a 2 -x {1.0 2.0 76 ------- null}
- -t 0.0770000000000001 -s 1 -d 2 -p cbr -e 500 -c 2 -i 97 -a 2 -x {1.0 2.0 76 ------- null}
h -t 0.0770000000000001 -s 1 -d 2 -p cbr -e 500 -c 2 -i 97 -a 2 -x {1.0 2.0 -1 ------- null}
+ -t 0.0780000000000001 -s 1 -d 2 -p cbr -e 500 -c 2 -i 98 -a 2 -x {1.0 2.0 77 ------- null}
- -t 0.0780000000000001 -s 1 -d 2 -p cbr -e 500 -c 2 -i 98 -a 2 -x {1.0 2.0 77 ------- null}
h -t 0.0780000000000001 -s 1 -d 2 -p cbr -e 500 -c 2 -i 98 -a 2 -x {1.0 2.0 -1 ------- null}
+ -t 0.0790000000000001 -s 1 -d 2 -p cbr -e 500 -c 2 -i 99 -a 2 -x {1.0 2.0 78 ------- null}
- -t 0.0790000000000001 -s 1 -d 2 -p cbr -e 500 -c 2 -i 99 -a 2 -x {1.0 2.0 78 ------- null}
h -t 0.0790000000000001 -s 1 -d 2 -p cbr -e 500 -c 2 -i 99 -a 2 -x {1.0 2.0 -1 ------- null}
+ -t 0.07975 -s 0 -d 2 -p cbr -e 210 -c 1 -i 100 -a 1 -x {0.0 2.0 21 ------- null}
+ -t 0.0800000000000001 -s 1 -d 2 -p cbr -e 500 -c 2 -i 101 -a 2 -x {1.0 2.0 79 ------- null}
- -t 0.0800000000000001 -s 1 -d 2 -p cbr -e 500 -c 2 -i 101 -a 2 -x {1.0 2.0 79 ------- null}
h -t 0.0800000000000001 -s 1 -d 2 -p cbr -e 500 -c 2 -i 101 -a 2 -x {1.0 2.0 -1 ------- null}
+ -t 0.0810000000000001 -s 1 -d 2 -p cbr -e 500 -c 2 -i 102 -a 2 -x {1.0 2.0 80 ------- null}
- -t 0.0810000000000001 -s 1 -d 2 -p cbr -e 500 -c 2 -i 102 -a 2 -x {1.0 2.0 80 ------- null}
h -t 0.0810000000000001 -s 1 -d 2 -p cbr -e 500 -c 2 -i 102 -a 2 -x {1.0 2.0 -1 ------- null}
+ -t 0.0820000000000001 -s 1 -d 2 -p cbr -e 500 -c 2 -i 103 -a 2 -x {1.0 2.0 81 ------- null}
- -t 0.0820000000000001 -s 1 -d 2 -p cbr -e 500 -c 2 -i 103 -a 2 -x {1.0 2.0 81 ------- null}
h -t 0.0820000000000001 -s 1 -d 2 -p cbr -e 500 -c 2 -i 103 -a 2 -x {1.0 2.0 -1 ------- null}
+ -t 0.0830000000000001 -s 1 -d 2 -p cbr -e 500 -c 2 -i 104 -a 2 -x {1.0 2.0 82 ------- null}
- -t 0.0830000000000001 -s 1 -d 2 -p cbr -e 500 -c 2 -i 104 -a 2 -x {1.0 2.0 82 ------- null}
h -t 0.0830000000000001 -s 1 -d 2 -p cbr -e 500 -c 2 -i 104 -a 2 -x {1.0 2.0 -1 ------- null}
+ -t 0.0835 -s 0 -d 2 -p cbr -e 210 -c 1 -i 105 -a 1 -x {0.0 2.0 22 ------- null}
+ -t 0.0840000000000001 -s 1 -d 2 -p cbr -e 500 -c 2 -i 106 -a 2 -x {1.0 2.0 83 ------- null}
- -t 0.0840000000000001 -s 1 -d 2 -p cbr -e 500 -c 2 -i 106 -a 2 -x {1.0 2.0 83 ------- null}
h -t 0.0840000000000001 -s 1 -d 2 -p cbr -e 500 -c 2 -i 106 -a 2 -x {1.0 2.0 -1 ------- null}
+ -t 0.0850000000000001 -s 1 -d 2 -p cbr -e 500 -c 2 -i 107 -a 2 -x {1.0 2.0 84 ------- null}
- -t 0.0850000000000001 -s 1 -d 2 -p cbr -e 500 -c 2 -i 107 -a 2 -x {1.0 2.0 84 ------- null}
h -t 0.0850000000000001 -s 1 -d 2 -p cbr -e 500 -c 2 -i 107 -a 2 -x {1.0 2.0 -1 ------- null}
+ -t 0.0860000000000001 -s 1 -d 2 -p cbr -e 500 -c 2 -i 108 -a 2 -x {1.0 2.0 85 ------- null}
- -t 0.0860000000000001 -s 1 -d 2 -p cbr -e 500 -c 2 -i 108 -a 2 -x {1.0 2.0 85 ------- null}
h -t 0.0860000000000001 -s 1 -d 2 -p cbr -e 500 -c 2 -i 108 -a 2 -x {1.0 2.0 -1 ------- null}
+ -t 0.0870000000000001 -s 1 -d 2 -p cbr -e 500 -c 2 -i 109 -a 2 -x {1.0 2.0 86 ------- null}
- -t 0.0870000000000001 -s 1 -d 2 -p cbr -e 500 -c 2 -i 109 -a 2 -x {1.0 2.0 86 ------- null}
h -t 0.0870000000000001 -s 1 -d 2 -p cbr -e 500 -c 2 -i 109 -a 2 -x {1.0 2.0 -1 ------- null}
+ -t 0.08725 -s 0 -d 2 -p cbr -e 210 -c 1 -i 110 -a 1 -x {0.0 2.0 23 ------- null}
+ -t 0.0880000000000001 -s 1 -d 2 -p cbr -e 500 -c 2 -i 111 -a 2 -x {1.0 2.0 87 ------- null}
- -t 0.0880000000000001 -s 1 -d 2 -p cbr -e 500 -c 2 -i 111 -a 2 -x {1.0 2.0 87 ------- null}
h -t 0.0880000000000001 -s 1 -d 2 -p cbr -e 500 -c 2 -i 111 -a 2 -x {1.0 2.0 -1 ------- null}
+ -t 0.0890000000000001 -s 1 -d 2 -p cbr -e 500 -c 2 -i 112 -a 2 -x {1.0 2.0 88 ------- null}
- -t 0.0890000000000001 -s 1 -d 2 -p cbr -e 500 -c 2 -i 112 -a 2 -x {1.0 2.0 88 ------- null}
h -t 0.0890000000000001 -s 1 -d 2 -p cbr -e 500 -c 2 -i 112 -a 2 -x {1.0 2.0 -1 ------- null}
+ -t 0.0900000000000001 -s 1 -d 2 -p cbr -e 500 -c 2 -i 113 -a 2 -x {1.0 2.0 89 ------- null}
- -t 0.0900000000000001 -s 1 -d 2 -p cbr -e 500 -c 2 -i 113 -a 2 -x {1.0 2.0 89 ------- null}
h -t 0.0900000000000001 -s 1 -d 2 -p cbr -e 500 -c 2 -i 113 -a 2 -x {1.0 2.0 -1 ------- null}
+ -t 0.0910000000000001 -s 0 -d 2 -p cbr -e 210 -c 1 -i 114 -a 1 -x {0.0 2.0 24 ------- null}
+ -t 0.0910000000000001 -s 1 -d 2 -p cbr -e 500 -c 2 -i 115 -a 2 -x {1.0 2.0 90 ------- null}
- -t 0.0910000000000001 -s 1 -d 2 -p cbr -e 500 -c 2 -i 115 -a 2 -x {1.0 2.0 90 ------- null}
h -t 0.0910000000000001 -s 1 -d 2 -p cbr -e 500 -c 2 -i 115 -a 2 -x {1.0 2.0 -1 ------- null}
+ -t 0.0920000000000001 -s 1 -d 2 -p cbr -e 500 -c 2 -i 116 -a 2 -x {1.0 2.0 91 ------- null}
- -t 0.0920000000000001 -s 1 -d 2 -p cbr -e 500 -c 2 -i 116 -a 2 -x {1.0 2.0 91 ------- null}
h -t 0.0920000000000001 -s 1 -d 2 -p cbr -e 500 -c 2 -i 116 -a 2 -x {1.0 2.0 -1 ------- null}
+ -t 0.0930000000000001 -s 1 -d 2 -p cbr -e 500 -c 2 -i 117 -a 2 -x {1.0 2.0 92 ------- null}
- -t 0.0930000000000001 -s 1 -d 2 -p cbr -e 500 -c 2 -i 117 -a 2 -x {1.0 2.0 92 ------- null}
h -t 0.0930000000000001 -s 1 -d 2 -p cbr -e 500 -c 2 -i 117 -a 2 -x {1.0 2.0 -1 ------- null}
+ -t 0.0940000000000001 -s 1 -d 2 -p cbr -e 500 -c 2 -i 118 -a 2 -x {1.0 2.0 93 ------- null}
- -t 0.0940000000000001 -s 1 -d 2 -p cbr -e 500 -c 2 -i 118 -a 2 -x {1.0 2.0 93 ------- null}
h -t 0.0940000000000001 -s 1 -d 2 -p cbr -e 500 -c 2 -i 118 -a 2 -x {1.0 2.0 -1 ------- null}
+ -t 0.0947500000000001 -s 0 -d 2 -p cbr -e 210 -c 1 -i 119 -a 1 -x {0.0 2.0 25 ------- null}
+ -t 0.0950000000000001 -s 1 -d 2 -p cbr -e 500 -c 2 -i 120 -a 2 -x {1.0 2.0 94 ------- null}
- -t 0.0950000000000001 -s 1 -d 2 -p cbr -e 500 -c 2 -i 120 -a 2 -x {1.0 2.0 94 ------- null}
h -t 0.0950000000000001 -s 1 -d 2 -p cbr -e 500 -c 2 -i 120 -a 2 -x {1.0 2.0 -1 ------- null}
+ -t 0.0960000000000001 -s 1 -d 2 -p cbr -e 500 -c 2 -i 121 -a 2 -x {1.0 2.0 95 ------- null}
- -t 0.0960000000000001 -s 1 -d 2 -p cbr -e 500 -c 2 -i 121 -a 2 -x {1.0 2.0 95 ------- null}
h -t 0.0960000000000001 -s 1 -d 2 -p cbr -e 500 -c 2 -i 121 -a 2 -x {1.0 2.0 -1 ------- null}
+ -t 0.0970000000000001 -s 1 -d 2 -p cbr -e 500 -c 2 -i 122 -a 2 -x {1.0 2.0 96 ------- null}
- -t 0.0970000000000001 -s 1 -d 2 -p cbr -e 500 -c 2 -i 122 -a 2 -x {1.0 2.0 96 ------- null}
h -t 0.0970000000000001 -s 1 -d 2 -p cbr -e 500 -c 2 -i 122 -a 2 -x {1.0 2.0 -1 ------- null}
+ -t 0.0980000000000001 -s 1 -d 2 -p cbr -e 500 -c 2 -i 123 -a 2 -x {1.0 2.0 97 ------- null}
- -t 0.0980000000000001 -s 1 -d 2 -p cbr -e 500 -c 2 -i 123 -a 2 -x {1.0 2.0 97 ------- null}
h -t 0.0980000000000001 -s 1 -d 2 -p cbr -e 500 -c 2 -i 123 -a 2 -x {1.0 2.0 -1 ------- null}
+ -t 0.0985000000000001 -s 0 -d 2 -p cbr -e 210 -c 1 -i 124 -a 1 -x {0.0 2.0 26 ------- null}
+ -t 0.0990000000000001 -s 1 -d 2 -p cbr -e 500 -c 2 -i 125 -a 2 -x {1.0 2.0 98 ------- null}
- -t 0.0990000000000001 -s 1 -d 2 -p cbr -e 500 -c 2 -i 125 -a 2 -x {1.0 2.0 98 ------- null}
h -t 0.0990000000000001 -s 1 -d 2 -p cbr -e 500 -c 2 -i 125 -a 2 -x {1.0 2.0 -1 ------- null}
+ -t 0.1 -s 1 -d 2 -p cbr -e 500 -c 2 -i 126 -a 2 -x {1.0 2.0 99 ------- null}
- -t 0.1 -s 1 -d 2 -p cbr -e 500 -c 2 -i 126 -a 2 -x {1.0 2.0 99 ------- null}
h -t 0.1 -s 1 -d 2 -p cbr -e 500 -c 2 -i 126 -a 2 -x {1.0 2.0 -1 ------- null}
+ -t 0.101 -s 1 -d 2 -p cbr -e 500 -c 2 -i 127 -a 2 -x {1.0 2.0 100 ------- null}
- -t 0.101 -s 1 -d 2 -p cbr -e 500 -c 2 -i 127 -a 2 -x {1.0 2.0 100 ------- null}
h -t 0.101 -s 1 -d 2 -p cbr -e 500 -c 2 -i 127 -a 2 -x {1.0 2.0 -1 ------- null}
+ -t 0.102 -s 1 -d 2 -p cbr -e 500 -c 2 -i 128 -a 2 -x {1.0 2.0 101 ------- null}
- -t 0.102 -s 1 -d 2 -p cbr -e 500 -c 2 -i 128 -a 2 -x {1.0 2.0 101 ------- null}
h -t 0.102 -s 1 -d 2 -p cbr -e 500 -c 2 -i 128 -a 2 -x {1.0 2.0 -1 ------- null}
+ -t 0.10225 -s 0 -d 2 -p cbr -e 210 -c 1 -i 129 -a 1 -x {0.0 2.0 27 ------- null}
+ -t 0.103 -s 1 -d 2 -p cbr -e 500 -c 2 -i 130 -a 2 -x {1.0 2.0 102 ------- null}
- -t 0.103 -s 1 -d 2 -p cbr -e 500 -c 2 -i 130 -a 2 -x {1.0 2.0 102 ------- null}
h -t 0.103 -s 1 -d 2 -p cbr -e 500 -c 2 -i 130 -a 2 -x {1.0 2.0 -1 ------- null}
+ -t 0.104 -s 1 -d 2 -p cbr -e 500 -c 2 -i 131 -a 2 -x {1.0 2.0 103 ------- null}
- -t 0.104 -s 1 -d 2 -p cbr -e 500 -c 2 -i 131 -a 2 -x {1.0 2.0 103 ------- null}
h -t 0.104 -s 1 -d 2 -p cbr -e 500 -c 2 -i 131 -a 2 -x {1.0 2.0 -1 ------- null}
+ -t 0.105 -s 1 -d 2 -p cbr -e 500 -c 2 -i 132 -a 2 -x {1.0 2.0 104 ------- null}
- -t 0.105 -s 1 -d 2 -p cbr -e 500 -c 2 -i 132 -a 2 -x {1.0 2.0 104 ------- null}
h -t 0.105 -s 1 -d 2 -p cbr -e 500 -c 2 -i 132 -a 2 -x {1.0 2.0 -1 ------- null}
+ -t 0.106 -s 0 -d 2 -p cbr -e 210 -c 1 -i 133 -a 1 -x {0.0 2.0 28 ------- null}
+ -t 0.106 -s 1 -d 2 -p cbr -e 500 -c 2 -i 134 -a 2 -x {1.0 2.0 105 ------- null}
- -t 0.106 -s 1 -d 2 -p cbr -e 500 -c 2 -i 134 -a 2 -x {1.0 2.0 105 ------- null}
h -t 0.106 -s 1 -d 2 -p cbr -e 500 -c 2 -i 134 -a 2 -x {1.0 2.0 -1 ------- null}
+ -t 0.107 -s 1 -d 2 -p cbr -e 500 -c 2 -i 135 -a 2 -x {1.0 2.0 106 ------- null}
- -t 0.107 -s 1 -d 2 -p cbr -e 500 -c 2 -i 135 -a 2 -x {1.0 2.0 106 ------- null}
h -t 0.107 -s 1 -d 2 -p cbr -e 500 -c 2 -i 135 -a 2 -x {1.0 2.0 -1 ------- null}
+ -t 0.108 -s 1 -d 2 -p cbr -e 500 -c 2 -i 136 -a 2 -x {1.0 2.0 107 ------- null}