n -t 0 -s 0 -S DLABEL -l "Source 1" -L ""
n -t 0 -s 1 -S DLABEL -l "Source 2" -L ""
n -t 0 -s 2 -S DLABEL -l "Destination" -L ""
V -t * -v 1.0a5 -a 0
A -t * -n 1 -p 0 -o 0x7fffffff -c 30 -a 1
A -t * -h 1 -m 1073741823 -s 0
c -t * -i 1 -n red
c -t * -i 2 -n blue
n -t * -a 0 -s 0 -S UP -v circle -c black -i black
n -t * -a 1 -s 1 -S UP -v circle -c black -i black
n -t * -a 2 -s 2 -S UP -v circle -c black -i black
l -t * -s 0 -d 2 -S UP -r 800000 -D 0.10000000000000001 -c black
l -t * -s 1 -d 2 -S UP -r 5000000 -D 0.20000000000000001 -c black
+ -t 0.001 -s 0 -d 2 -p cbr -e 210 -c 1 -i 0 -a 1 -x {0.0 2.0 0 ------- null}
- -t 0.001 -s 0 -d 2 -p cbr -e 210 -c 1 -i 0 -a 1 -x {0.0 2.0 0 ------- null}
h -t 0.001 -s 0 -d 2 -p cbr -e 210 -c 1 -i 0 -a 1 -x {0.0 2.0 -1 ------- null}
+ -t 0.001 -s 1 -d 2 -p cbr -e 210 -c 2 -i 1 -a 2 -x {1.0 2.0 0 ------- null}
- -t 0.001 -s 1 -d 2 -p cbr -e 210 -c 2 -i 1 -a 2 -x {1.0 2.0 0 ------- null}
h -t 0.001 -s 1 -d 2 -p cbr -e 210 -c 2 -i 1 -a 2 -x {1.0 2.0 -1 ------- null}
+ -t 0.00475 -s 0 -d 2 -p cbr -e 210 -c 1 -i 2 -a 1 -x {0.0 2.0 1 ------- null}
- -t 0.00475 -s 0 -d 2 -p cbr -e 210 -c 1 -i 2 -a 1 -x {0.0 2.0 1 ------- null}
h -t 0.00475 -s 0 -d 2 -p cbr -e 210 -c 1 -i 2 -a 1 -x {0.0 2.0 -1 ------- null}
+ -t 0.00475 -s 1 -d 2 -p cbr -e 210 -c 2 -i 3 -a 2 -x {1.0 2.0 1 ------- null}
- -t 0.00475 -s 1 -d 2 -p cbr -e 210 -c 2 -i 3 -a 2 -x {1.0 2.0 1 ------- null}
h -t 0.00475 -s 1 -d 2 -p cbr -e 210 -c 2 -i 3 -a 2 -x {1.0 2.0 -1 ------- null}
+ -t 0.0085 -s 0 -d 2 -p cbr -e 210 -c 1 -i 4 -a 1 -x {0.0 2.0 2 ------- null}
- -t 0.0085 -s 0 -d 2 -p cbr -e 210 -c 1 -i 4 -a 1 -x {0.0 2.0 2 ------- null}
h -t 0.0085 -s 0 -d 2 -p cbr -e 210 -c 1 -i 4 -a 1 -x {0.0 2.0 -1 ------- null}
+ -t 0.0085 -s 1 -d 2 -p cbr -e 210 -c 2 -i 5 -a 2 -x {1.0 2.0 2 ------- null}
- -t 0.0085 -s 1 -d 2 -p cbr -e 210 -c 2 -i 5 -a 2 -x {1.0 2.0 2 ------- null}
h -t 0.0085 -s 1 -d 2 -p cbr -e 210 -c 2 -i 5 -a 2 -x {1.0 2.0 -1 ------- null}
+ -t 0.01225 -s 0 -d 2 -p cbr -e 210 -c 1 -i 6 -a 1 -x {0.0 2.0 3 ------- null}
- -t 0.01225 -s 0 -d 2 -p cbr -e 210 -c 1 -i 6 -a 1 -x {0.0 2.0 3 ------- null}
h -t 0.01225 -s 0 -d 2 -p cbr -e 210 -c 1 -i 6 -a 1 -x {0.0 2.0 -1 ------- null}
+ -t 0.01225 -s 1 -d 2 -p cbr -e 210 -c 2 -i 7 -a 2 -x {1.0 2.0 3 ------- null}
- -t 0.01225 -s 1 -d 2 -p cbr -e 210 -c 2 -i 7 -a 2 -x {1.0 2.0 3 ------- null}
h -t 0.01225 -s 1 -d 2 -p cbr -e 210 -c 2 -i 7 -a 2 -x {1.0 2.0 -1 ------- null}
+ -t 0.016 -s 0 -d 2 -p cbr -e 210 -c 1 -i 8 -a 1 -x {0.0 2.0 4 ------- null}
- -t 0.016 -s 0 -d 2 -p cbr -e 210 -c 1 -i 8 -a 1 -x {0.0 2.0 4 ------- null}
h -t 0.016 -s 0 -d 2 -p cbr -e 210 -c 1 -i 8 -a 1 -x {0.0 2.0 -1 ------- null}
+ -t 0.016 -s 1 -d 2 -p cbr -e 210 -c 2 -i 9 -a 2 -x {1.0 2.0 4 ------- null}
- -t 0.016 -s 1 -d 2 -p cbr -e 210 -c 2 -i 9 -a 2 -x {1.0 2.0 4 ------- null}
h -t 0.016 -s 1 -d 2 -p cbr -e 210 -c 2 -i 9 -a 2 -x {1.0 2.0 -1 ------- null}
+ -t 0.01975 -s 0 -d 2 -p cbr -e 210 -c 1 -i 10 -a 1 -x {0.0 2.0 5 ------- null}
- -t 0.01975 -s 0 -d 2 -p cbr -e 210 -c 1 -i 10 -a 1 -x {0.0 2.0 5 ------- null}
h -t 0.01975 -s 0 -d 2 -p cbr -e 210 -c 1 -i 10 -a 1 -x {0.0 2.0 -1 ------- null}
+ -t 0.01975 -s 1 -d 2 -p cbr -e 210 -c 2 -i 11 -a 2 -x {1.0 2.0 5 ------- null}
- -t 0.01975 -s 1 -d 2 -p cbr -e 210 -c 2 -i 11 -a 2 -x {1.0 2.0 5 ------- null}
h -t 0.01975 -s 1 -d 2 -p cbr -e 210 -c 2 -i 11 -a 2 -x {1.0 2.0 -1 ------- null}
+ -t 0.0235 -s 0 -d 2 -p cbr -e 210 -c 1 -i 12 -a 1 -x {0.0 2.0 6 ------- null}
- -t 0.0235 -s 0 -d 2 -p cbr -e 210 -c 1 -i 12 -a 1 -x {0.0 2.0 6 ------- null}
h -t 0.0235 -s 0 -d 2 -p cbr -e 210 -c 1 -i 12 -a 1 -x {0.0 2.0 -1 ------- null}
+ -t 0.0235 -s 1 -d 2 -p cbr -e 210 -c 2 -i 13 -a 2 -x {1.0 2.0 6 ------- null}
- -t 0.0235 -s 1 -d 2 -p cbr -e 210 -c 2 -i 13 -a 2 -x {1.0 2.0 6 ------- null}
h -t 0.0235 -s 1 -d 2 -p cbr -e 210 -c 2 -i 13 -a 2 -x {1.0 2.0 -1 ------- null}
+ -t 0.02725 -s 0 -d 2 -p cbr -e 210 -c 1 -i 14 -a 1 -x {0.0 2.0 7 ------- null}
- -t 0.02725 -s 0 -d 2 -p cbr -e 210 -c 1 -i 14 -a 1 -x {0.0 2.0 7 ------- null}
h -t 0.02725 -s 0 -d 2 -p cbr -e 210 -c 1 -i 14 -a 1 -x {0.0 2.0 -1 ------- null}
+ -t 0.02725 -s 1 -d 2 -p cbr -e 210 -c 2 -i 15 -a 2 -x {1.0 2.0 7 ------- null}
- -t 0.02725 -s 1 -d 2 -p cbr -e 210 -c 2 -i 15 -a 2 -x {1.0 2.0 7 ------- null}
h -t 0.02725 -s 1 -d 2 -p cbr -e 210 -c 2 -i 15 -a 2 -x {1.0 2.0 -1 ------- null}
+ -t 0.031 -s 0 -d 2 -p cbr -e 210 -c 1 -i 16 -a 1 -x {0.0 2.0 8 ------- null}
- -t 0.031 -s 0 -d 2 -p cbr -e 210 -c 1 -i 16 -a 1 -x {0.0 2.0 8 ------- null}
h -t 0.031 -s 0 -d 2 -p cbr -e 210 -c 1 -i 16 -a 1 -x {0.0 2.0 -1 ------- null}
+ -t 0.031 -s 1 -d 2 -p cbr -e 210 -c 2 -i 17 -a 2 -x {1.0 2.0 8 ------- null}
- -t 0.031 -s 1 -d 2 -p cbr -e 210 -c 2 -i 17 -a 2 -x {1.0 2.0 8 ------- null}
h -t 0.031 -s 1 -d 2 -p cbr -e 210 -c 2 -i 17 -a 2 -x {1.0 2.0 -1 ------- null}
+ -t 0.03475 -s 0 -d 2 -p cbr -e 210 -c 1 -i 18 -a 1 -x {0.0 2.0 9 ------- null}
- -t 0.03475 -s 0 -d 2 -p cbr -e 210 -c 1 -i 18 -a 1 -x {0.0 2.0 9 ------- null}
h -t 0.03475 -s 0 -d 2 -p cbr -e 210 -c 1 -i 18 -a 1 -x {0.0 2.0 -1 ------- null}
+ -t 0.03475 -s 1 -d 2 -p cbr -e 210 -c 2 -i 19 -a 2 -x {1.0 2.0 9 ------- null}
- -t 0.03475 -s 1 -d 2 -p cbr -e 210 -c 2 -i 19 -a 2 -x {1.0 2.0 9 ------- null}
h -t 0.03475 -s 1 -d 2 -p cbr -e 210 -c 2 -i 19 -a 2 -x {1.0 2.0 -1 ------- null}
+ -t 0.0385 -s 0 -d 2 -p cbr -e 210 -c 1 -i 20 -a 1 -x {0.0 2.0 10 ------- null}
- -t 0.0385 -s 0 -d 2 -p cbr -e 210 -c 1 -i 20 -a 1 -x {0.0 2.0 10 ------- null}
h -t 0.0385 -s 0 -d 2 -p cbr -e 210 -c 1 -i 20 -a 1 -x {0.0 2.0 -1 ------- null}
+ -t 0.0385 -s 1 -d 2 -p cbr -e 210 -c 2 -i 21 -a 2 -x {1.0 2.0 10 ------- null}
- -t 0.0385 -s 1 -d 2 -p cbr -e 210 -c 2 -i 21 -a 2 -x {1.0 2.0 10 ------- null}
h -t 0.0385 -s 1 -d 2 -p cbr -e 210 -c 2 -i 21 -a 2 -x {1.0 2.0 -1 ------- null}
+ -t 0.04225 -s 0 -d 2 -p cbr -e 210 -c 1 -i 22 -a 1 -x {0.0 2.0 11 ------- null}
- -t 0.04225 -s 0 -d 2 -p cbr -e 210 -c 1 -i 22 -a 1 -x {0.0 2.0 11 ------- null}
h -t 0.04225 -s 0 -d 2 -p cbr -e 210 -c 1 -i 22 -a 1 -x {0.0 2.0 -1 ------- null}
+ -t 0.04225 -s 1 -d 2 -p cbr -e 210 -c 2 -i 23 -a 2 -x {1.0 2.0 11 ------- null}
- -t 0.04225 -s 1 -d 2 -p cbr -e 210 -c 2 -i 23 -a 2 -x {1.0 2.0 11 ------- null}
h -t 0.04225 -s 1 -d 2 -p cbr -e 210 -c 2 -i 23 -a 2 -x {1.0 2.0 -1 ------- null}
+ -t 0.046 -s 0 -d 2 -p cbr -e 210 -c 1 -i 24 -a 1 -x {0.0 2.0 12 ------- null}
- -t 0.046 -s 0 -d 2 -p cbr -e 210 -c 1 -i 24 -a 1 -x {0.0 2.0 12 ------- null}
h -t 0.046 -s 0 -d 2 -p cbr -e 210 -c 1 -i 24 -a 1 -x {0.0 2.0 -1 ------- null}
+ -t 0.046 -s 1 -d 2 -p cbr -e 210 -c 2 -i 25 -a 2 -x {1.0 2.0 12 ------- null}
- -t 0.046 -s 1 -d 2 -p cbr -e 210 -c 2 -i 25 -a 2 -x {1.0 2.0 12 ------- null}
h -t 0.046 -s 1 -d 2 -p cbr -e 210 -c 2 -i 25 -a 2 -x {1.0 2.0 -1 ------- null}
+ -t 0.04975 -s 0 -d 2 -p cbr -e 210 -c 1 -i 26 -a 1 -x {0.0 2.0 13 ------- null}
- -t 0.04975 -s 0 -d 2 -p cbr -e 210 -c 1 -i 26 -a 1 -x {0.0 2.0 13 ------- null}
h -t 0.04975 -s 0 -d 2 -p cbr -e 210 -c 1 -i 26 -a 1 -x {0.0 2.0 -1 ------- null}
+ -t 0.04975 -s 1 -d 2 -p cbr -e 210 -c 2 -i 27 -a 2 -x {1.0 2.0 13 ------- null}
- -t 0.04975 -s 1 -d 2 -p cbr -e 210 -c 2 -i 27 -a 2 -x {1.0 2.0 13 ------- null}
h -t 0.04975 -s 1 -d 2 -p cbr -e 210 -c 2 -i 27 -a 2 -x {1.0 2.0 -1 ------- null}
+ -t 0.0535 -s 0 -d 2 -p cbr -e 210 -c 1 -i 28 -a 1 -x {0.0 2.0 14 ------- null}
- -t 0.0535 -s 0 -d 2 -p cbr -e 210 -c 1 -i 28 -a 1 -x {0.0 2.0 14 ------- null}
h -t 0.0535 -s 0 -d 2 -p cbr -e 210 -c 1 -i 28 -a 1 -x {0.0 2.0 -1 ------- null}
+ -t 0.0535 -s 1 -d 2 -p cbr -e 210 -c 2 -i 29 -a 2 -x {1.0 2.0 14 ------- null}
- -t 0.0535 -s 1 -d 2 -p cbr -e 210 -c 2 -i 29 -a 2 -x {1.0 2.0 14 ------- null}
h -t 0.0535 -s 1 -d 2 -p cbr -e 210 -c 2 -i 29 -a 2 -x {1.0 2.0 -1 ------- null}
+ -t 0.05725 -s 0 -d 2 -p cbr -e 210 -c 1 -i 30 -a 1 -x {0.0 2.0 15 ------- null}
- -t 0.05725 -s 0 -d 2 -p cbr -e 210 -c 1 -i 30 -a 1 -x {0.0 2.0 15 ------- null}
h -t 0.05725 -s 0 -d 2 -p cbr -e 210 -c 1 -i 30 -a 1 -x {0.0 2.0 -1 ------- null}
+ -t 0.05725 -s 1 -d 2 -p cbr -e 210 -c 2 -i 31 -a 2 -x {1.0 2.0 15 ------- null}
- -t 0.05725 -s 1 -d 2 -p cbr -e 210 -c 2 -i 31 -a 2 -x {1.0 2.0 15 ------- null}
h -t 0.05725 -s 1 -d 2 -p cbr -e 210 -c 2 -i 31 -a 2 -x {1.0 2.0 -1 ------- null}
+ -t 0.061 -s 0 -d 2 -p cbr -e 210 -c 1 -i 32 -a 1 -x {0.0 2.0 16 ------- null}
- -t 0.061 -s 0 -d 2 -p cbr -e 210 -c 1 -i 32 -a 1 -x {0.0 2.0 16 ------- null}
h -t 0.061 -s 0 -d 2 -p cbr -e 210 -c 1 -i 32 -a 1 -x {0.0 2.0 -1 ------- null}
+ -t 0.061 -s 1 -d 2 -p cbr -e 210 -c 2 -i 33 -a 2 -x {1.0 2.0 16 ------- null}
- -t 0.061 -s 1 -d 2 -p cbr -e 210 -c 2 -i 33 -a 2 -x {1.0 2.0 16 ------- null}
h -t 0.061 -s 1 -d 2 -p cbr -e 210 -c 2 -i 33 -a 2 -x {1.0 2.0 -1 ------- null}
+ -t 0.06475 -s 0 -d 2 -p cbr -e 210 -c 1 -i 34 -a 1 -x {0.0 2.0 17 ------- null}
- -t 0.06475 -s 0 -d 2 -p cbr -e 210 -c 1 -i 34 -a 1 -x {0.0 2.0 17 ------- null}
h -t 0.06475 -s 0 -d 2 -p cbr -e 210 -c 1 -i 34 -a 1 -x {0.0 2.0 -1 ------- null}
+ -t 0.06475 -s 1 -d 2 -p cbr -e 210 -c 2 -i 35 -a 2 -x {1.0 2.0 17 ------- null}
- -t 0.06475 -s 1 -d 2 -p cbr -e 210 -c 2 -i 35 -a 2 -x {1.0 2.0 17 ------- null}
h -t 0.06475 -s 1 -d 2 -p cbr -e 210 -c 2 -i 35 -a 2 -x {1.0 2.0 -1 ------- null}
+ -t 0.0685 -s 0 -d 2 -p cbr -e 210 -c 1 -i 36 -a 1 -x {0.0 2.0 18 ------- null}
- -t 0.0685 -s 0 -d 2 -p cbr -e 210 -c 1 -i 36 -a 1 -x {0.0 2.0 18 ------- null}
h -t 0.0685 -s 0 -d 2 -p cbr -e 210 -c 1 -i 36 -a 1 -x {0.0 2.0 -1 ------- null}
+ -t 0.0685 -s 1 -d 2 -p cbr -e 210 -c 2 -i 37 -a 2 -x {1.0 2.0 18 ------- null}
- -t 0.0685 -s 1 -d 2 -p cbr -e 210 -c 2 -i 37 -a 2 -x {1.0 2.0 18 ------- null}
h -t 0.0685 -s 1 -d 2 -p cbr -e 210 -c 2 -i 37 -a 2 -x {1.0 2.0 -1 ------- null}
+ -t 0.07225 -s 0 -d 2 -p cbr -e 210 -c 1 -i 38 -a 1 -x {0.0 2.0 19 ------- null}
- -t 0.07225 -s 0 -d 2 -p cbr -e 210 -c 1 -i 38 -a 1 -x {0.0 2.0 19 ------- null}
h -t 0.07225 -s 0 -d 2 -p cbr -e 210 -c 1 -i 38 -a 1 -x {0.0 2.0 -1 ------- null}
+ -t 0.07225 -s 1 -d 2 -p cbr -e 210 -c 2 -i 39 -a 2 -x {1.0 2.0 19 ------- null}
- -t 0.07225 -s 1 -d 2 -p cbr -e 210 -c 2 -i 39 -a 2 -x {1.0 2.0 19 ------- null}
h -t 0.07225 -s 1 -d 2 -p cbr -e 210 -c 2 -i 39 -a 2 -x {1.0 2.0 -1 ------- null}
+ -t 0.076 -s 0 -d 2 -p cbr -e 210 -c 1 -i 40 -a 1 -x {0.0 2.0 20 ------- null}
- -t 0.076 -s 0 -d 2 -p cbr -e 210 -c 1 -i 40 -a 1 -x {0.0 2.0 20 ------- null}
h -t 0.076 -s 0 -d 2 -p cbr -e 210 -c 1 -i 40 -a 1 -x {0.0 2.0 -1 ------- null}
+ -t 0.076 -s 1 -d 2 -p cbr -e 210 -c 2 -i 41 -a 2 -x {1.0 2.0 20 ------- null}
- -t 0.076 -s 1 -d 2 -p cbr -e 210 -c 2 -i 41 -a 2 -x {1.0 2.0 20 ------- null}
h -t 0.076 -s 1 -d 2 -p cbr -e 210 -c 2 -i 41 -a 2 -x {1.0 2.0 -1 ------- null}
+ -t 0.07975 -s 0 -d 2 -p cbr -e 210 -c 1 -i 42 -a 1 -x {0.0 2.0 21 ------- null}
- -t 0.07975 -s 0 -d 2 -p cbr -e 210 -c 1 -i 42 -a 1 -x {0.0 2.0 21 ------- null}
h -t 0.07975 -s 0 -d 2 -p cbr -e 210 -c 1 -i 42 -a 1 -x {0.0 2.0 -1 ------- null}
+ -t 0.07975 -s 1 -d 2 -p cbr -e 210 -c 2 -i 43 -a 2 -x {1.0 2.0 21 ------- null}
- -t 0.07975 -s 1 -d 2 -p cbr -e 210 -c 2 -i 43 -a 2 -x {1.0 2.0 21 ------- null}
h -t 0.07975 -s 1 -d 2 -p cbr -e 210 -c 2 -i 43 -a 2 -x {1.0 2.0 -1 ------- null}
+ -t 0.0835 -s 0 -d 2 -p cbr -e 210 -c 1 -i 44 -a 1 -x {0.0 2.0 22 ------- null}
- -t 0.0835 -s 0 -d 2 -p cbr -e 210 -c 1 -i 44 -a 1 -x {0.0 2.0 22 ------- null}
h -t 0.0835 -s 0 -d 2 -p cbr -e 210 -c 1 -i 44 -a 1 -x {0.0 2.0 -1 ------- null}
+ -t 0.0835 -s 1 -d 2 -p cbr -e 210 -c 2 -i 45 -a 2 -x {1.0 2.0 22 ------- null}
- -t 0.0835 -s 1 -d 2 -p cbr -e 210 -c 2 -i 45 -a 2 -x {1.0 2.0 22 ------- null}
h -t 0.0835 -s 1 -d 2 -p cbr -e 210 -c 2 -i 45 -a 2 -x {1.0 2.0 -1 ------- null}
+ -t 0.08725 -s 0 -d 2 -p cbr -e 210 -c 1 -i 46 -a 1 -x {0.0 2.0 23 ------- null}
- -t 0.08725 -s 0 -d 2 -p cbr -e 210 -c 1 -i 46 -a 1 -x {0.0 2.0 23 ------- null}
h -t 0.08725 -s 0 -d 2 -p cbr -e 210 -c 1 -i 46 -a 1 -x {0.0 2.0 -1 ------- null}
+ -t 0.08725 -s 1 -d 2 -p cbr -e 210 -c 2 -i 47 -a 2 -x {1.0 2.0 23 ------- null}
- -t 0.08725 -s 1 -d 2 -p cbr -e 210 -c 2 -i 47 -a 2 -x {1.0 2.0 23 ------- null}
h -t 0.08725 -s 1 -d 2 -p cbr -e 210 -c 2 -i 47 -a 2 -x {1.0 2.0 -1 ------- null}
+ -t 0.0910000000000001 -s 0 -d 2 -p cbr -e 210 -c 1 -i 48 -a 1 -x {0.0 2.0 24 ------- null}
- -t 0.0910000000000001 -s 0 -d 2 -p cbr -e 210 -c 1 -i 48 -a 1 -x {0.0 2.0 24 ------- null}
h -t 0.0910000000000001 -s 0 -d 2 -p cbr -e 210 -c 1 -i 48 -a 1 -x {0.0 2.0 -1 ------- null}
+ -t 0.0910000000000001 -s 1 -d 2 -p cbr -e 210 -c 2 -i 49 -a 2 -x {1.0 2.0 24 ------- null}
- -t 0.0910000000000001 -s 1 -d 2 -p cbr -e 210 -c 2 -i 49 -a 2 -x {1.0 2.0 24 ------- null}
h -t 0.0910000000000001 -s 1 -d 2 -p cbr -e 210 -c 2 -i 49 -a 2 -x {1.0 2.0 -1 ------- null}
+ -t 0.0947500000000001 -s 0 -d 2 -p cbr -e 210 -c 1 -i 50 -a 1 -x {0.0 2.0 25 ------- null}
- -t 0.0947500000000001 -s 0 -d 2 -p cbr -e 210 -c 1 -i 50 -a 1 -x {0.0 2.0 25 ------- null}
h -t 0.0947500000000001 -s 0 -d 2 -p cbr -e 210 -c 1 -i 50 -a 1 -x {0.0 2.0 -1 ------- null}
+ -t 0.0947500000000001 -s 1 -d 2 -p cbr -e 210 -c 2 -i 51 -a 2 -x {1.0 2.0 25 ------- null}
- -t 0.0947500000000001 -s 1 -d 2 -p cbr -e 210 -c 2 -i 51 -a 2 -x {1.0 2.0 25 ------- null}
h -t 0.0947500000000001 -s 1 -d 2 -p cbr -e 210 -c 2 -i 51 -a 2 -x {1.0 2.0 -1 ------- null}
+ -t 0.0985000000000001 -s 0 -d 2 -p cbr -e 210 -c 1 -i 52 -a 1 -x {0.0 2.0 26 ------- null}
- -t 0.0985000000000001 -s 0 -d 2 -p cbr -e 210 -c 1 -i 52 -a 1 -x {0.0 2.0 26 ------- null}
h -t 0.0985000000000001 -s 0 -d 2 -p cbr -e 210 -c 1 -i 52 -a 1 -x {0.0 2.0 -1 ------- null}
+ -t 0.0985000000000001 -s 1 -d 2 -p cbr -e 210 -c 2 -i 53 -a 2 -x {1.0 2.0 26 ------- null}
- -t 0.0985000000000001 -s 1 -d 2 -p cbr -e 210 -c 2 -i 53 -a 2 -x {1.0 2.0 26 ------- null}
h -t 0.0985000000000001 -s 1 -d 2 -p cbr -e 210 -c 2 -i 53 -a 2 -x {1.0 2.0 -1 ------- null}
+ -t 0.10225 -s 0 -d 2 -p cbr -e 210 -c 1 -i 54 -a 1 -x {0.0 2.0 27 ------- null}
- -t 0.10225 -s 0 -d 2 -p cbr -e 210 -c 1 -i 54 -a 1 -x {0.0 2.0 27 ------- null}
h -t 0.10225 -s 0 -d 2 -p cbr -e 210 -c 1 -i 54 -a 1 -x {0.0 2.0 -1 ------- null}
+ -t 0.10225 -s 1 -d 2 -p cbr -e 210 -c 2 -i 55 -a 2 -x {1.0 2.0 27 ------- null}
- -t 0.10225 -s 1 -d 2 -p cbr -e 210 -c 2 -i 55 -a 2 -x {1.0 2.0 27 ------- null}
h -t 0.10225 -s 1 -d 2 -p cbr -e 210 -c 2 -i 55 -a 2 -x {1.0 2.0 -1 ------- null}
r -t 0.1031 -s 0 -d 2 -p cbr -e 210 -c 1 -i 0 -a 1 -x {0.0 2.0 0 ------- null}
+ -t 0.106 -s 0 -d 2 -p cbr -e 210 -c 1 -i 56 -a 1 -x {0.0 2.0 28 ------- null}
- -t 0.106 -s 0 -d 2 -p cbr -e 210 -c 1 -i 56 -a 1 -x {0.0 2.0 28 ------- null}
h -t 0.106 -s 0 -d 2 -p cbr -e 210 -c 1 -i 56 -a 1 -x {0.0 2.0 -1 ------- null}
+ -t 0.106 -s 1 -d 2 -p cbr -e 210 -c 2 -i 57 -a 2 -x {1.0 2.0 28 ------- null}
- -t 0.106 -s 1 -d 2 -p cbr -e 210 -c 2 -i 57 -a 2 -x {1.0 2.0 28 ------- null}
h -t 0.106 -s 1 -d 2 -p cbr -e 210 -c 2 -i 57 -a 2 -x {1.0 2.0 -1 ------- null}
r -t 0.10685 -s 0 -d 2 -p cbr -e 210 -c 1 -i 2 -a 1 -x {0.0 2.0 1 ------- null}
+ -t 0.10975 -s 0 -d 2 -p cbr -e 210 -c 1 -i 58 -a 1 -x {0.0 2.0 29 ------- null}
- -t 0.10975 -s 0 -d 2 -p cbr -e 210 -c 1 -i 58 -a 1 -x {0.0 2.0 29 ------- null}
h -t 0.10975 -s 0 -d 2 -p cbr -e 210 -c 1 -i 58 -a 1 -x {0.0 2.0 -1 ------- null}
+ -t 0.10975 -s 1 -d 2 -p cbr -e 210 -c 2 -i 59 -a 2 -x {1.0 2.0 29 ------- null}
- -t 0.10975 -s 1 -d 2 -p cbr -e 210 -c 2 -i 59 -a 2 -x {1.0 2.0 29 ------- null}
h -t 0.10975 -s 1 -d 2 -p cbr -e 210 -c 2 -i 59 -a 2 -x {1.0 2.0 -1 ------- null}
r -t 0.1106 -s 0 -d 2 -p cbr -e 210 -c 1 -i 4 -a 1 -x {0.0 2.0 2 ------- null}
+ -t 0.1135 -s 0 -d 2 -p cbr -e 210 -c 1 -i 60 -a 1 -x {0.0 2.0 30 ------- null}
- -t 0.1135 -s 0 -d 2 -p cbr -e 210 -c 1 -i 60 -a 1 -x {0.0 2.0 30 ------- null}
h -t 0.1135 -s 0 -d 2 -p cbr -e 210 -c 1 -i 60 -a 1 -x {0.0 2.0 -1 ------- null}
+ -t 0.1135 -s 1 -d 2 -p cbr -e 210 -c 2 -i 61 -a 2 -x {1.0 2.0 30 ------- null}
- -t 0.1135 -s 1 -d 2 -p cbr -e 210 -c 2 -i 61 -a 2 -x {1.0 2.0 30 ------- null}
h -t 0.1135 -s 1 -d 2 -p cbr -e 210 -c 2 -i 61 -a 2 -x {1.0 2.0 -1 ------- null}
r -t 0.11435 -s 0 -d 2 -p cbr -e 210 -c 1 -i 6 -a 1 -x {0.0 2.0 3 ------- null}
+ -t 0.11725 -s 0 -d 2 -p cbr -e 210 -c 1 -i 62 -a 1 -x {0.0 2.0 31 ------- null}
- -t 0.11725 -s 0 -d 2 -p cbr -e 210 -c 1 -i 62 -a 1 -x {0.0 2.0 31 ------- null}
h -t 0.11725 -s 0 -d 2 -p cbr -e 210 -c 1 -i 62 -a 1 -x {0.0 2.0 -1 ------- null}
+ -t 0.11725 -s 1 -d 2 -p cbr -e 210 -c 2 -i 63 -a 2 -x {1.0 2.0 31 ------- null}
- -t 0.11725 -s 1 -d 2 -p cbr -e 210 -c 2 -i 63 -a 2 -x {1.0 2.0 31 ------- null}
h -t 0.11725 -s 1 -d 2 -p cbr -e 210 -c 2 -i 63 -a 2 -x {1.0 2.0 -1 ------- null}
r -t 0.1181 -s 0 -d 2 -p cbr -e 210 -c 1 -i 8 -a 1 -x {0.0 2.0 4 ------- null}
+ -t 0.121 -s 0 -d 2 -p cbr -e 210 -c 1 -i 64 -a 1 -x {0.0 2.0 32 ------- null}
- -t 0.121 -s 0 -d 2 -p cbr -e 210 -c 1 -i 64 -a 1 -x {0.0 2.0 32 ------- null}
h -t 0.121 -s 0 -d 2 -p cbr -e 210 -c 1 -i 64 -a 1 -x {0.0 2.0 -1 ------- null}
+ -t 0.121 -s 1 -d 2 -p cbr -e 210 -c 2 -i 65 -a 2 -x {1.0 2.0 32 ------- null}
- -t 0.121 -s 1 -d 2 -p cbr -e 210 -c 2 -i 65 -a 2 -x {1.0 2.0 32 ------- null}
h -t 0.121 -s 1 -d 2 -p cbr -e 210 -c 2 -i 65 -a 2 -x {1.0 2.0 -1 ------- null}
r -t 0.12185 -s 0 -d 2 -p cbr -e 210 -c 1 -i 10 -a 1 -x {0.0 2.0 5 ------- null}
+ -t 0.12475 -s 0 -d 2 -p cbr -e 210 -c 1 -i 66 -a 1 -x {0.0 2.0 33 ------- null}
- -t 0.12475 -s 0 -d 2 -p cbr -e 210 -c 1 -i 66 -a 1 -x {0.0 2.0 33 ------- null}
h -t 0.12475 -s 0 -d 2 -p cbr -e 210 -c 1 -i 66 -a 1 -x {0.0 2.0 -1 ------- null}
+ -t 0.12475 -s 1 -d 2 -p cbr -e 210 -c 2 -i 67 -a 2 -x {1.0 2.0 33 ------- null}
- -t 0.12475 -s 1 -d 2 -p cbr -e 210 -c 2 -i 67 -a 2 -x {1.0 2.0 33 ------- null}
h -t 0.12475 -s 1 -d 2 -p cbr -e 210 -c 2 -i 67 -a 2 -x {1.0 2.0 -1 ------- null}
r -t 0.1256 -s 0 -d 2 -p cbr -e 210 -c 1 -i 12 -a 1 -x {0.0 2.0 6 ------- null}
+ -t 0.1285 -s 0 -d 2 -p cbr -e 210 -c 1 -i 68 -a 1 -x {0.0 2.0 34 ------- null}
- -t 0.1285 -s 0 -d 2 -p cbr -e 210 -c 1 -i 68 -a 1 -x {0.0 2.0 34 ------- null}
h -t 0.1285 -s 0 -d 2 -p cbr -e 210 -c 1 -i 68 -a 1 -x {0.0 2.0 -1 ------- null}
+ -t 0.1285 -s 1 -d 2 -p cbr -e 210 -c 2 -i 69 -a 2 -x {1.0 2.0 34 ------- null}
- -t 0.1285 -s 1 -d 2 -p cbr -e 210 -c 2 -i 69 -a 2 -x {1.0 2.0 34 ------- null}
h -t 0.1285 -s 1 -d 2 -p cbr -e 210 -c 2 -i 69 -a 2 -x {1.0 2.0 -1 ------- null}
r -t 0.12935 -s 0 -d 2 -p cbr -e 210 -c 1 -i 14 -a 1 -x {0.0 2.0 7 ------- null}
+ -t 0.13225 -s 0 -d 2 -p cbr -e 210 -c 1 -i 70 -a 1 -x {0.0 2.0 35 ------- null}
- -t 0.13225 -s 0 -d 2 -p cbr -e 210 -c 1 -i 70 -a 1 -x {0.0 2.0 35 ------- null}
h -t 0.13225 -s 0 -d 2 -p cbr -e 210 -c 1 -i 70 -a 1 -x {0.0 2.0 -1 ------- null}
+ -t 0.13225 -s 1 -d 2 -p cbr -e 210 -c 2 -i 71 -a 2 -x {1.0 2.0 35 ------- null}
- -t 0.13225 -s 1 -d 2 -p cbr -e 210 -c 2 -i 71 -a 2 -x {1.0 2.0 35 ------- null}
h -t 0.13225 -s 1 -d 2 -p cbr -e 210 -c 2 -i 71 -a 2 -x {1.0 2.0 -1 ------- null}
r -t 0.1331 -s 0 -d 2 -p cbr -e 210 -c 1 -i 16 -a 1 -x {0.0 2.0 8 ------- null}
+ -t 0.136 -s 0 -d 2 -p cbr -e 210 -c 1 -i 72 -a 1 -x {0.0 2.0 36 ------- null}
- -t 0.136 -s 0 -d 2 -p cbr -e 210 -c 1 -i 72 -a 1 -x {0.0 2.0 36 ------- null}
h -t 0.136 -s 0 -d 2 -p cbr -e 210 -c 1 -i 72 -a 1 -x {0.0 2.0 -1 ------- null}
+ -t 0.136 -s 1 -d 2 -p cbr -e 210 -c 2 -i 73 -a 2 -x {1.0 2.0 36 ------- null}
- -t 0.136 -s 1 -d 2 -p cbr -e 210 -c 2 -i 73 -a 2 -x {1.0 2.0 36 ------- null}
h -t 0.136 -s 1 -d 2 -p cbr -e 210 -c 2 -i 73 -a 2 -x {1.0 2.0 -1 ------- null}
r -t 0.13685 -s 0 -d 2 -p cbr -e 210 -c 1 -i 18 -a 1 -x {0.0 2.0 9 ------- null}
+ -t 0.13975 -s 0 -d 2 -p cbr -e 210 -c 1 -i 74 -a 1 -x {0.0 2.0 37 ------- null}
- -t 0.13975 -s 0 -d 2 -p cbr -e 210 -c 1 -i 74 -a 1 -x {0.0 2.0 37 ------- null}
h -t 0.13975 -s 0 -d 2 -p cbr -e 210 -c 1 -i 74 -a 1 -x {0.0 2.0 -1 ------- null}
+ -t 0.13975 -s 1 -d 2 -p cbr -e 210 -c 2 -i 75 -a 2 -x {1.0 2.0 37 ------- null}
- -t 0.13975 -s 1 -d 2 -p cbr -e 210 -c 2 -i 75 -a 2 -x {1.0 2.0 37 ------- null}
h -t 0.13975 -s 1 -d 2 -p cbr -e 210 -c 2 -i 75 -a 2 -x {1.0 2.0 -1 ------- null}
r -t 0.1406 -s 0 -d 2 -p cbr -e 210 -c 1 -i 20 -a 1 -x {0.0 2.0 10 ------- null}
+ -t 0.1435 -s 0 -d 2 -p cbr -e 210 -c 1 -i 76 -a 1 -x {0.0 2.0 38 ------- null}
- -t 0.1435 -s 0 -d 2 -p cbr -e 210 -c 1 -i 76 -a 1 -x {0.0 2.0 38 ------- null}
h -t 0.1435 -s 0 -d 2 -p cbr -e 210 -c 1 -i 76 -a 1 -x {0.0 2.0 -1 ------- null}
+ -t 0.1435 -s 1 -d 2 -p cbr -e 210 -c 2 -i 77 -a 2 -x {1.0 2.0 38 ------- null}
- -t 0.1435 -s 1 -d 2 -p cbr -e 210 -c 2 -i 77 -a 2 -x {1.0 2.0 38 ------- null}
h -t 0.1435 -s 1 -d 2 -p cbr -e 210 -c 2 -i 77 -a 2 -x {1.0 2.0 -1 ------- null}
r -t 0.14435 -s 0 -d 2 -p cbr -e 210 -c 1 -i 22 -a 1 -x {0.0 2.0 11 ------- null}
+ -t 0.14725 -s 0 -d 2 -p cbr -e 210 -c 1 -i 78 -a 1 -x {0.0 2.0 39 ------- null}
- -t 0.14725 -s 0 -d 2 -p cbr -e 210 -c 1 -i 78 -a 1 -x {0.0 2.0 39 ------- null}
h -t 0.14725 -s 0 -d 2 -p cbr -e 210 -c 1 -i 78 -a 1 -x {0.0 2.0 -1 ------- null}
+ -t 0.14725 -s 1 -d 2 -p cbr -e 210 -c 2 -i 79 -a 2 -x {1.0 2.0 39 ------- null}
- -t 0.14725 -s 1 -d 2 -p cbr -e 210 -c 2 -i 79 -a 2 -x {1.0 2.0 39 ------- null}
h -t 0.14725 -s 1 -d 2 -p cbr -e 210 -c 2 -i 79 -a 2 -x {1.0 2.0 -1 ------- null}
r -t 0.1481 -s 0 -d 2 -p cbr -e 210 -c 1 -i 24 -a 1 -x {0.0 2.0 12 ------- null}
+ -t 0.151 -s 0 -d 2 -p cbr -e 210 -c 1 -i 80 -a 1 -x {0.0 2.0 40 ------- null}
- -t 0.151 -s 0 -d 2 -p cbr -e 210 -c 1 -i 80 -a 1 -x {0.0 2.0 40 ------- null}
h -t 0.151 -s 0 -d 2 -p cbr -e 210 -c 1 -i 80 -a 1 -x {0.0 2.0 -1 ------- null}
+ -t 0.151 -s 1 -d 2 -p cbr -e 210 -c 2 -i 81 -a 2 -x {1.0 2.0 40 ------- null}
- -t 0.151 -s 1 -d 2 -p cbr -e 210 -c 2 -i 81 -a 2 -x {1.0 2.0 40 ------- null}
h -t 0.151 -s 1 -d 2 -p cbr -e 210 -c 2 -i 81 -a 2 -x {1.0 2.0 -1 ------- null}
r -t 0.15185 -s 0 -d 2 -p cbr -e 210 -c 1 -i 26 -a 1 -x {0.0 2.0 13 ------- null}
+ -t 0.15475 -s 0 -d 2 -p cbr -e 210 -c 1 -i 82 -a 1 -x {0.0 2.0 41 ------- null}
- -t 0.15475 -s 0 -d 2 -p cbr -e 210 -c 1 -i 82 -a 1 -x {0.0 2.0 41 ------- null}
h -t 0.15475 -s 0 -d 2 -p cbr -e 210 -c 1 -i 82 -a 1 -x {0.0 2.0 -1 ------- null}
+ -t 0.15475 -s 1 -d 2 -p cbr -e 210 -c 2 -i 83 -a 2 -x {1.0 2.0 41 ------- null}
- -t 0.15475 -s 1 -d 2 -p cbr -e 210 -c 2 -i 83 -a 2 -x {1.0 2.0 41 ------- null}
h -t 0.15475 -s 1 -d 2 -p cbr -e 210 -c 2 -i 83 -a 2 -x {1.0 2.0 -1 ------- null}
r -t 0.1556 -s 0 -d 2 -p cbr -e 210 -c 1 -i 28 -a 1 -x {0.0 2.0 14 ------- null}
+ -t 0.1585 -s 0 -d 2 -p cbr -e 210 -c 1 -i 84 -a 1 -x {0.0 2.0 42 ------- null}
- -t 0.1585 -s 0 -d 2 -p cbr -e 210 -c 1 -i 84 -a 1 -x {0.0 2.0 42 ------- null}
h -t 0.1585 -s 0 -d 2 -p cbr -e 210 -c 1 -i 84 -a 1 -x {0.0 2.0 -1 ------- null}
+ -t 0.1585 -s 1 -d 2 -p cbr -e 210 -c 2 -i 85 -a 2 -x {1.0 2.0 42 ------- null}
- -t 0.1585 -s 1 -d 2 -p cbr -e 210 -c 2 -i 85 -a 2 -x {1.0 2.0 42 ------- null}
h -t 0.1585 -s 1 -d 2 -p cbr -e 210 -c 2 -i 85 -a 2 -x {1.0 2.0 -1 ------- null}
r -t 0.15935 -s 0 -d 2 -p cbr -e 210 -c 1 -i 30 -a 1 -x {0.0 2.0 15 ------- null}
+ -t 0.16225 -s 0 -d 2 -p cbr -e 210 -c 1 -i 86 -a 1 -x {0.0 2.0 43 ------- null}
- -t 0.16225 -s 0 -d 2 -p cbr -e 210 -c 1 -i 86 -a 1 -x {0.0 2.0 43 ------- null}
h -t 0.16225 -s 0 -d 2 -p cbr -e 210 -c 1 -i 86 -a 1 -x {0.0 2.0 -1 ------- null}
+ -t 0.16225 -s 1 -d 2 -p cbr -e 210 -c 2 -i 87 -a 2 -x {1.0 2.0 43 ------- null}
- -t 0.16225 -s 1 -d 2 -p cbr -e 210 -c 2 -i 87 -a 2 -x {1.0 2.0 43 ------- null}
h -t 0.16225 -s 1 -d 2 -p cbr -e 210 -c 2 -i 87 -a 2 -x {1.0 2.0 -1 ------- null}
r -t 0.1631 -s 0 -d 2 -p cbr -e 210 -c 1 -i 32 -a 1 -x {0.0 2.0 16 ------- null}
+ -t 0.166 -s 0 -d 2 -p cbr -e 210 -c 1 -i 88 -a 1 -x {0.0 2.0 44 ------- null}
- -t 0.166 -s 0 -d 2 -p cbr -e 210 -c 1 -i 88 -a 1 -x {0.0 2.0 44 ------- null}
h -t 0.166 -s 0 -d 2 -p cbr -e 210 -c 1 -i 88 -a 1 -x {0.0 2.0 -1 ------- null}
+ -t 0.166 -s 1 -d 2 -p cbr -e 210 -c 2 -i 89 -a 2 -x {1.0 2.0 44 ------- null}
- -t 0.166 -s 1 -d 2 -p cbr -e 210 -c 2 -i 89 -a 2 -x {1.0 2.0 44 ------- null}
h -t 0.166 -s 1 -d 2 -p cbr -e 210 -c 2 -i 89 -a 2 -x {1.0 2.0 -1 ------- null}
r -t 0.16685 -s 0 -d 2 -p cbr -e 210 -c 1 -i 34 -a 1 -x {0.0 2.0 17 ------- null}
+ -t 0.16975 -s 0 -d 2 -p cbr -e 210 -c 1 -i 90 -a 1 -x {0.0 2.0 45 ------- null}
- -t 0.16975 -s 0 -d 2 -p cbr -e 210 -c 1 -i 90 -a 1 -x {0.0 2.0 45 ------- null}
h -t 0.16975 -s 0 -d 2 -p cbr -e 210 -c 1 -i 90 -a 1 -x {0.0 2.0 -1 ------- null}
+ -t 0.16975 -s 1 -d 2 -p cbr -e 210 -c 2 -i 91 -a 2 -x {1.0 2.0 45 ------- null}
- -t 0.16975 -s 1 -d 2 -p cbr -e 210 -c 2 -i 91 -a 2 -x {1.0 2.0 45 ------- null}
h -t 0.16975 -s 1 -d 2 -p cbr -e 210 -c 2 -i 91 -a 2 -x {1.0 2.0 -1 ------- null}
r -t 0.1706 -s 0 -d 2 -p cbr -e 210 -c 1 -i 36 -a 1 -x {0.0 2.0 18 ------- null}
+ -t 0.1735 -s 0 -d 2 -p cbr -e 210 -c 1 -i 92 -a 1 -x {0.0 2.0 46 ------- null}
- -t 0.1735 -s 0 -d 2 -p cbr -e 210 -c 1 -i 92 -a 1 -x {0.0 2.0 46 ------- null}
h -t 0.1735 -s 0 -d 2 -p cbr -e 210 -c 1 -i 92 -a 1 -x {0.0 2.0 -1 ------- null}
+ -t 0.1735 -s 1 -d 2 -p cbr -e 210 -c 2 -i 93 -a 2 -x {1.0 2.0 46 ------- null}
- -t 0.1735 -s 1 -d 2 -p cbr -e 210 -c 2 -i 93 -a 2 -x {1.0 2.0 46 ------- null}
h -t 0.1735 -s 1 -d 2 -p cbr -e 210 -c 2 -i 93 -a 2 -x {1.0 2.0 -1 ------- null}
r -t 0.17435 -s 0 -d 2 -p cbr -e 210 -c 1 -i 38 -a 1 -x {0.0 2.0 19 ------- null}
+ -t 0.17725 -s 0 -d 2 -p cbr -e 210 -c 1 -i 94 -a 1 -x {0.0 2.0 47 ------- null}
- -t 0.17725 -s 0 -d 2 -p cbr -e 210 -c 1 -i 94 -a 1 -x {0.0 2.0 47 ------- null}
h -t 0.17725 -s 0 -d 2 -p cbr -e 210 -c 1 -i 94 -a 1 -x {0.0 2.0 -1 ------- null}
+ -t 0.17725 -s 1 -d 2 -p cbr -e 210 -c 2 -i 95 -a 2 -x {1.0 2.0 47 ------- null}
- -t 0.17725 -s 1 -d 2 -p cbr -e 210 -c 2 -i 95 -a 2 -x {1.0 2.0 47 ------- null}
h -t 0.17725 -s 1 -d 2 -p cbr -e 210 -c 2 -i 95 -a 2 -x {1.0 2.0 -1 ------- null}
r -t 0.1781 -s 0 -d 2 -p cbr -e 210 -c 1 -i 40 -a 1 -x {0.0 2.0 20 ------- null}
+ -t 0.181 -s 0 -d 2 -p cbr -e 210 -c 1 -i 96 -a 1 -x {0.0 2.0 48 ------- null}
- -t 0.181 -s 0 -d 2 -p cbr -e 210 -c 1 -i 96 -a 1 -x {0.0 2.0 48 ------- null}
h -t 0.181 -s 0 -d 2 -p cbr -e 210 -c 1 -i 96 -a 1 -x {0.0 2.0 -1 ------- null}
+ -t 0.181 -s 1 -d 2 -p cbr -e 210 -c 2 -i 97 -a 2 -x {1.0 2.0 48 ------- null}
- -t 0.181 -s 1 -d 2 -p cbr -e 210 -c 2 -i 97 -a 2 -x {1.0 2.0 48 ------- null}
h -t 0.181 -s 1 -d 2 -p cbr -e 210 -c 2 -i 97 -a 2 -x {1.0 2.0 -1 ------- null}
r -t 0.18185 -s 0 -d 2 -p cbr -e 210 -c 1 -i 42 -a 1 -x {0.0 2.0 21 ------- null}
+ -t 0.18475 -s 0 -d 2 -p cbr -e 210 -c 1 -i 98 -a 1 -x {0.0 2.0 49 ------- null}
- -t 0.18475 -s 0 -d 2 -p cbr -e 210 -c 1 -i 98 -a 1 -x {0.0 2.0 49 ------- null}
h -t 0.18475 -s 0 -d 2 -p cbr -e 210 -c 1 -i 98 -a 1 -x {0.0 2.0 -1 ------- null}
+ -t 0.18475 -s 1 -d 2 -p cbr -e 210 -c 2 -i 99 -a 2 -x {1.0 2.0 49 ------- null}
- -t 0.18475 -s 1 -d 2 -p cbr -e 210 -c 2 -i 99 -a 2 -x {1.0 2.0 49 ------- null}
h -t 0.18475 -s 1 -d 2 -p cbr -e 210 -c 2 -i 99 -a 2 -x {1.0 2.0 -1 ------- null}
r -t 0.1856 -s 0 -d 2 -p cbr -e 210 -c 1 -i 44 -a 1 -x {0.0 2.0 22 ------- null}
+ -t 0.1885 -s 0 -d 2 -p cbr -e 210 -c 1 -i 100 -a 1 -x {0.0 2.0 50 ------- null}
- -t 0.1885 -s 0 -d 2 -p cbr -e 210 -c 1 -i 100 -a 1 -x {0.0 2.0 50 ------- null}
h -t 0.1885 -s 0 -d 2 -p cbr -e 210 -c 1 -i 100 -a 1 -x {0.0 2.0 -1 ------- null}
+ -t 0.1885 -s 1 -d 2 -p cbr -e 210 -c 2 -i 101 -a 2 -x {1.0 2.0 50 ------- null}
- -t 0.1885 -s 1 -d 2 -p cbr -e 210 -c 2 -i 101 -a 2 -x {1.0 2.0 50 ------- null}
h -t 0.1885 -s 1 -d 2 -p cbr -e 210 -c 2 -i 101 -a 2 -x {1.0 2.0 -1 ------- null}
r -t 0.18935 -s 0 -d 2 -p cbr -e 210 -c 1 -i 46 -a 1 -x {0.0 2.0 23 ------- null}
+ -t 0.19225 -s 0 -d 2 -p cbr -e 210 -c 1 -i 102 -a 1 -x {0.0 2.0 51 ------- null}
- -t 0.19225 -s 0 -d 2 -p cbr -e 210 -c 1 -i 102 -a 1 -x {0.0 2.0 51 ------- null}
h -t 0.19225 -s 0 -d 2 -p cbr -e 210 -c 1 -i 102 -a 1 -x {0.0 2.0 -1 ------- null}
+ -t 0.19225 -s 1 -d 2 -p cbr -e 210 -c 2 -i 103 -a 2 -x {1.0 2.0 51 ------- null}
- -t 0.19225 -s 1 -d 2 -p cbr -e 210 -c 2 -i 103 -a 2 -x {1.0 2.0 51 ------- null}
h -t 0.19225 -s 1 -d 2 -p cbr -e 210 -c 2 -i 103 -a 2 -x {1.0 2.0 -1 ------- null}
r -t 0.1931 -s 0 -d 2 -p cbr -e 210 -c 1 -i 48 -a 1 -x {0.0 2.0 24 ------- null}
+ -t 0.196 -s 0 -d 2 -p cbr -e 210 -c 1 -i 104 -a 1 -x {0.0 2.0 52 ------- null}
- -t 0.196 -s 0 -d 2 -p cbr -e 210 -c 1 -i 104 -a 1 -x {0.0 2.0 52 ------- null}
h -t 0.196 -s 0 -d 2 -p cbr -e 210 -c 1 -i 104 -a 1 -x {0.0 2.0 -1 ------- null}
+ -t 0.196 -s 1 -d 2 -p cbr -e 210 -c 2 -i 105 -a 2 -x {1.0 2.0 52 ------- null}
- -t 0.196 -s 1 -d 2 -p cbr -e 210 -c 2 -i 105 -a 2 -x {1.0 2.0 52 ------- null}
h -t 0.196 -s 1 -d 2 -p cbr -e 210 -c 2 -i 105 -a 2 -x {1.0 2.0 -1 ------- null}
r -t 0.19685 -s 0 -d 2 -p cbr -e 210 -c 1 -i 50 -a 1 -x {0.0 2.0 25 ------- null}
+ -t 0.19975 -s 0 -d 2 -p cbr -e 210 -c 1 -i 106 -a 1 -x {0.0 2.0 53 ------- null}
- -t 0.19975 -s 0 -d 2 -p cbr -e 210 -c 1 -i 106 -a 1 -x {0.0 2.0 53 ------- null}
h -t 0.19975 -s 0 -d 2 -p cbr -e 210 -c 1 -i 106 -a 1 -x {0.0 2.0 -1 ------- null}
+ -t 0.19975 -s 1 -d 2 -p cbr -e 210 -c 2 -i 107 -a 2 -x {1.0 2.0 53 ------- null}
- -t 0.19975 -s 1 -d 2 -p cbr -e 210 -c 2 -i 107 -a 2 -x {1.0 2.0 53 ------- null}
h -t 0.19975 -s 1 -d 2 -p cbr -e 210 -c 2 -i 107 -a 2 -x {1.0 2.0 -1 ------- null}
r -t 0.2006 -s 0 -d 2 -p cbr -e 210 -c 1 -i 52 -a 1 -x {0.0 2.0 26 ------- null}
r -t 0.201336 -s 1 -d 2 -p cbr -e 210 -c 2 -i 1 -a 2 -x {1.0 2.0 0 ------- null}
+ -t 0.2035 -s 0 -d 2 -p cbr -e 210 -c 1 -i 108 -a 1 -x {0.0 2.0 54 ------- null}
- -t 0.2035 -s 0 -d 2 -p cbr -e 210 -c 1 -i 108 -a 1 -x {0.0 2.0 54 ------- null}
h -t 0.2035 -s 0 -d 2 -p cbr -e 210 -c 1 -i 108 -a 1 -x {0.0 2.0 -1 ------- null}
+ -t 0.2035 -s 1 -d 2 -p cbr -e 210 -c 2 -i 109 -a 2 -x {1.0 2.0 54 ------- null}
- -t 0.2035 -s 1 -d 2 -p cbr -e 210 -c 2 -i 109 -a 2 -x {1.0 2.0 54 ------- null}
h -t 0.2035 -s 1 -d 2 -p cbr -e 210 -c 2 -i 109 -a 2 -x {1.0 2.0 -1 ------- null}
r -t 0.20435 -s 0 -d 2 -p cbr -e 210 -c 1 -i 54 -a 1 -x {0.0 2.0 27 ------- null}
r -t 0.205086 -s 1 -d 2 -p cbr -e 210 -c 2 -i 3 -a 2 -x {1.0 2.0 1 ------- null}