+ 0.001 0 2 cbr 210 ------- 1 0.0 2.0 0 0
- 0.001 0 2 cbr 210 ------- 1 0.0 2.0 0 0
+ 0.001 1 2 cbr 210 ------- 2 1.0 2.0 0 1
- 0.001 1 2 cbr 210 ------- 2 1.0 2.0 0 1
+ 0.00475 0 2 cbr 210 ------- 1 0.0 2.0 1 2
- 0.00475 0 2 cbr 210 ------- 1 0.0 2.0 1 2
+ 0.00475 1 2 cbr 210 ------- 2 1.0 2.0 1 3
- 0.00475 1 2 cbr 210 ------- 2 1.0 2.0 1 3
+ 0.0085 0 2 cbr 210 ------- 1 0.0 2.0 2 4
- 0.0085 0 2 cbr 210 ------- 1 0.0 2.0 2 4
+ 0.0085 1 2 cbr 210 ------- 2 1.0 2.0 2 5
- 0.0085 1 2 cbr 210 ------- 2 1.0 2.0 2 5
+ 0.01225 0 2 cbr 210 ------- 1 0.0 2.0 3 6
- 0.01225 0 2 cbr 210 ------- 1 0.0 2.0 3 6
+ 0.01225 1 2 cbr 210 ------- 2 1.0 2.0 3 7
- 0.01225 1 2 cbr 210 ------- 2 1.0 2.0 3 7
+ 0.016 0 2 cbr 210 ------- 1 0.0 2.0 4 8
- 0.016 0 2 cbr 210 ------- 1 0.0 2.0 4 8
+ 0.016 1 2 cbr 210 ------- 2 1.0 2.0 4 9
- 0.016 1 2 cbr 210 ------- 2 1.0 2.0 4 9
+ 0.01975 0 2 cbr 210 ------- 1 0.0 2.0 5 10
- 0.01975 0 2 cbr 210 ------- 1 0.0 2.0 5 10
+ 0.01975 1 2 cbr 210 ------- 2 1.0 2.0 5 11
- 0.01975 1 2 cbr 210 ------- 2 1.0 2.0 5 11
+ 0.0235 0 2 cbr 210 ------- 1 0.0 2.0 6 12
- 0.0235 0 2 cbr 210 ------- 1 0.0 2.0 6 12
+ 0.0235 1 2 cbr 210 ------- 2 1.0 2.0 6 13
- 0.0235 1 2 cbr 210 ------- 2 1.0 2.0 6 13
+ 0.02725 0 2 cbr 210 ------- 1 0.0 2.0 7 14
- 0.02725 0 2 cbr 210 ------- 1 0.0 2.0 7 14
+ 0.02725 1 2 cbr 210 ------- 2 1.0 2.0 7 15
- 0.02725 1 2 cbr 210 ------- 2 1.0 2.0 7 15
+ 0.031 0 2 cbr 210 ------- 1 0.0 2.0 8 16
- 0.031 0 2 cbr 210 ------- 1 0.0 2.0 8 16
+ 0.031 1 2 cbr 210 ------- 2 1.0 2.0 8 17
- 0.031 1 2 cbr 210 ------- 2 1.0 2.0 8 17
+ 0.03475 0 2 cbr 210 ------- 1 0.0 2.0 9 18
- 0.03475 0 2 cbr 210 ------- 1 0.0 2.0 9 18
+ 0.03475 1 2 cbr 210 ------- 2 1.0 2.0 9 19
- 0.03475 1 2 cbr 210 ------- 2 1.0 2.0 9 19
+ 0.0385 0 2 cbr 210 ------- 1 0.0 2.0 10 20
- 0.0385 0 2 cbr 210 ------- 1 0.0 2.0 10 20
+ 0.0385 1 2 cbr 210 ------- 2 1.0 2.0 10 21
- 0.0385 1 2 cbr 210 ------- 2 1.0 2.0 10 21
+ 0.04225 0 2 cbr 210 ------- 1 0.0 2.0 11 22
- 0.04225 0 2 cbr 210 ------- 1 0.0 2.0 11 22
+ 0.04225 1 2 cbr 210 ------- 2 1.0 2.0 11 23
- 0.04225 1 2 cbr 210 ------- 2 1.0 2.0 11 23
+ 0.046 0 2 cbr 210 ------- 1 0.0 2.0 12 24
- 0.046 0 2 cbr 210 ------- 1 0.0 2.0 12 24
+ 0.046 1 2 cbr 210 ------- 2 1.0 2.0 12 25
- 0.046 1 2 cbr 210 ------- 2 1.0 2.0 12 25
+ 0.04975 0 2 cbr 210 ------- 1 0.0 2.0 13 26
- 0.04975 0 2 cbr 210 ------- 1 0.0 2.0 13 26
+ 0.04975 1 2 cbr 210 ------- 2 1.0 2.0 13 27
- 0.04975 1 2 cbr 210 ------- 2 1.0 2.0 13 27
+ 0.0535 0 2 cbr 210 ------- 1 0.0 2.0 14 28
- 0.0535 0 2 cbr 210 ------- 1 0.0 2.0 14 28
+ 0.0535 1 2 cbr 210 ------- 2 1.0 2.0 14 29
- 0.0535 1 2 cbr 210 ------- 2 1.0 2.0 14 29
+ 0.05725 0 2 cbr 210 ------- 1 0.0 2.0 15 30
- 0.05725 0 2 cbr 210 ------- 1 0.0 2.0 15 30
+ 0.05725 1 2 cbr 210 ------- 2 1.0 2.0 15 31
- 0.05725 1 2 cbr 210 ------- 2 1.0 2.0 15 31
+ 0.061 0 2 cbr 210 ------- 1 0.0 2.0 16 32
- 0.061 0 2 cbr 210 ------- 1 0.0 2.0 16 32
+ 0.061 1 2 cbr 210 ------- 2 1.0 2.0 16 33
- 0.061 1 2 cbr 210 ------- 2 1.0 2.0 16 33
+ 0.06475 0 2 cbr 210 ------- 1 0.0 2.0 17 34
- 0.06475 0 2 cbr 210 ------- 1 0.0 2.0 17 34
+ 0.06475 1 2 cbr 210 ------- 2 1.0 2.0 17 35
- 0.06475 1 2 cbr 210 ------- 2 1.0 2.0 17 35
+ 0.0685 0 2 cbr 210 ------- 1 0.0 2.0 18 36
- 0.0685 0 2 cbr 210 ------- 1 0.0 2.0 18 36
+ 0.0685 1 2 cbr 210 ------- 2 1.0 2.0 18 37
- 0.0685 1 2 cbr 210 ------- 2 1.0 2.0 18 37
+ 0.07225 0 2 cbr 210 ------- 1 0.0 2.0 19 38
- 0.07225 0 2 cbr 210 ------- 1 0.0 2.0 19 38
+ 0.07225 1 2 cbr 210 ------- 2 1.0 2.0 19 39
- 0.07225 1 2 cbr 210 ------- 2 1.0 2.0 19 39
+ 0.076 0 2 cbr 210 ------- 1 0.0 2.0 20 40
- 0.076 0 2 cbr 210 ------- 1 0.0 2.0 20 40
+ 0.076 1 2 cbr 210 ------- 2 1.0 2.0 20 41
- 0.076 1 2 cbr 210 ------- 2 1.0 2.0 20 41
+ 0.07975 0 2 cbr 210 ------- 1 0.0 2.0 21 42
- 0.07975 0 2 cbr 210 ------- 1 0.0 2.0 21 42
+ 0.07975 1 2 cbr 210 ------- 2 1.0 2.0 21 43
- 0.07975 1 2 cbr 210 ------- 2 1.0 2.0 21 43
+ 0.0835 0 2 cbr 210 ------- 1 0.0 2.0 22 44
- 0.0835 0 2 cbr 210 ------- 1 0.0 2.0 22 44
+ 0.0835 1 2 cbr 210 ------- 2 1.0 2.0 22 45
- 0.0835 1 2 cbr 210 ------- 2 1.0 2.0 22 45
+ 0.08725 0 2 cbr 210 ------- 1 0.0 2.0 23 46
- 0.08725 0 2 cbr 210 ------- 1 0.0 2.0 23 46
+ 0.08725 1 2 cbr 210 ------- 2 1.0 2.0 23 47
- 0.08725 1 2 cbr 210 ------- 2 1.0 2.0 23 47
+ 0.091 0 2 cbr 210 ------- 1 0.0 2.0 24 48
- 0.091 0 2 cbr 210 ------- 1 0.0 2.0 24 48
+ 0.091 1 2 cbr 210 ------- 2 1.0 2.0 24 49
- 0.091 1 2 cbr 210 ------- 2 1.0 2.0 24 49
+ 0.09475 0 2 cbr 210 ------- 1 0.0 2.0 25 50
- 0.09475 0 2 cbr 210 ------- 1 0.0 2.0 25 50
+ 0.09475 1 2 cbr 210 ------- 2 1.0 2.0 25 51
- 0.09475 1 2 cbr 210 ------- 2 1.0 2.0 25 51
+ 0.0985 0 2 cbr 210 ------- 1 0.0 2.0 26 52
- 0.0985 0 2 cbr 210 ------- 1 0.0 2.0 26 52
+ 0.0985 1 2 cbr 210 ------- 2 1.0 2.0 26 53
- 0.0985 1 2 cbr 210 ------- 2 1.0 2.0 26 53
+ 0.10225 0 2 cbr 210 ------- 1 0.0 2.0 27 54
- 0.10225 0 2 cbr 210 ------- 1 0.0 2.0 27 54
+ 0.10225 1 2 cbr 210 ------- 2 1.0 2.0 27 55
- 0.10225 1 2 cbr 210 ------- 2 1.0 2.0 27 55
r 0.1031 0 2 cbr 210 ------- 1 0.0 2.0 0 0
+ 0.106 0 2 cbr 210 ------- 1 0.0 2.0 28 56
- 0.106 0 2 cbr 210 ------- 1 0.0 2.0 28 56
+ 0.106 1 2 cbr 210 ------- 2 1.0 2.0 28 57
- 0.106 1 2 cbr 210 ------- 2 1.0 2.0 28 57
r 0.10685 0 2 cbr 210 ------- 1 0.0 2.0 1 2
+ 0.10975 0 2 cbr 210 ------- 1 0.0 2.0 29 58
- 0.10975 0 2 cbr 210 ------- 1 0.0 2.0 29 58
+ 0.10975 1 2 cbr 210 ------- 2 1.0 2.0 29 59
- 0.10975 1 2 cbr 210 ------- 2 1.0 2.0 29 59
r 0.1106 0 2 cbr 210 ------- 1 0.0 2.0 2 4
+ 0.1135 0 2 cbr 210 ------- 1 0.0 2.0 30 60
- 0.1135 0 2 cbr 210 ------- 1 0.0 2.0 30 60
+ 0.1135 1 2 cbr 210 ------- 2 1.0 2.0 30 61
- 0.1135 1 2 cbr 210 ------- 2 1.0 2.0 30 61
r 0.11435 0 2 cbr 210 ------- 1 0.0 2.0 3 6
+ 0.11725 0 2 cbr 210 ------- 1 0.0 2.0 31 62
- 0.11725 0 2 cbr 210 ------- 1 0.0 2.0 31 62
+ 0.11725 1 2 cbr 210 ------- 2 1.0 2.0 31 63
- 0.11725 1 2 cbr 210 ------- 2 1.0 2.0 31 63
r 0.1181 0 2 cbr 210 ------- 1 0.0 2.0 4 8
+ 0.121 0 2 cbr 210 ------- 1 0.0 2.0 32 64
- 0.121 0 2 cbr 210 ------- 1 0.0 2.0 32 64
+ 0.121 1 2 cbr 210 ------- 2 1.0 2.0 32 65
- 0.121 1 2 cbr 210 ------- 2 1.0 2.0 32 65
r 0.12185 0 2 cbr 210 ------- 1 0.0 2.0 5 10
+ 0.12475 0 2 cbr 210 ------- 1 0.0 2.0 33 66
- 0.12475 0 2 cbr 210 ------- 1 0.0 2.0 33 66
+ 0.12475 1 2 cbr 210 ------- 2 1.0 2.0 33 67
- 0.12475 1 2 cbr 210 ------- 2 1.0 2.0 33 67
r 0.1256 0 2 cbr 210 ------- 1 0.0 2.0 6 12
+ 0.1285 0 2 cbr 210 ------- 1 0.0 2.0 34 68
- 0.1285 0 2 cbr 210 ------- 1 0.0 2.0 34 68
+ 0.1285 1 2 cbr 210 ------- 2 1.0 2.0 34 69
- 0.1285 1 2 cbr 210 ------- 2 1.0 2.0 34 69
r 0.12935 0 2 cbr 210 ------- 1 0.0 2.0 7 14
+ 0.13225 0 2 cbr 210 ------- 1 0.0 2.0 35 70
- 0.13225 0 2 cbr 210 ------- 1 0.0 2.0 35 70
+ 0.13225 1 2 cbr 210 ------- 2 1.0 2.0 35 71
- 0.13225 1 2 cbr 210 ------- 2 1.0 2.0 35 71
r 0.1331 0 2 cbr 210 ------- 1 0.0 2.0 8 16
+ 0.136 0 2 cbr 210 ------- 1 0.0 2.0 36 72
- 0.136 0 2 cbr 210 ------- 1 0.0 2.0 36 72
+ 0.136 1 2 cbr 210 ------- 2 1.0 2.0 36 73
- 0.136 1 2 cbr 210 ------- 2 1.0 2.0 36 73
r 0.13685 0 2 cbr 210 ------- 1 0.0 2.0 9 18
+ 0.13975 0 2 cbr 210 ------- 1 0.0 2.0 37 74
- 0.13975 0 2 cbr 210 ------- 1 0.0 2.0 37 74
+ 0.13975 1 2 cbr 210 ------- 2 1.0 2.0 37 75
- 0.13975 1 2 cbr 210 ------- 2 1.0 2.0 37 75
r 0.1406 0 2 cbr 210 ------- 1 0.0 2.0 10 20
+ 0.1435 0 2 cbr 210 ------- 1 0.0 2.0 38 76
- 0.1435 0 2 cbr 210 ------- 1 0.0 2.0 38 76
+ 0.1435 1 2 cbr 210 ------- 2 1.0 2.0 38 77
- 0.1435 1 2 cbr 210 ------- 2 1.0 2.0 38 77
r 0.14435 0 2 cbr 210 ------- 1 0.0 2.0 11 22
+ 0.14725 0 2 cbr 210 ------- 1 0.0 2.0 39 78
- 0.14725 0 2 cbr 210 ------- 1 0.0 2.0 39 78
+ 0.14725 1 2 cbr 210 ------- 2 1.0 2.0 39 79
- 0.14725 1 2 cbr 210 ------- 2 1.0 2.0 39 79
r 0.1481 0 2 cbr 210 ------- 1 0.0 2.0 12 24
+ 0.151 0 2 cbr 210 ------- 1 0.0 2.0 40 80
- 0.151 0 2 cbr 210 ------- 1 0.0 2.0 40 80
+ 0.151 1 2 cbr 210 ------- 2 1.0 2.0 40 81
- 0.151 1 2 cbr 210 ------- 2 1.0 2.0 40 81
r 0.15185 0 2 cbr 210 ------- 1 0.0 2.0 13 26
+ 0.15475 0 2 cbr 210 ------- 1 0.0 2.0 41 82
- 0.15475 0 2 cbr 210 ------- 1 0.0 2.0 41 82
+ 0.15475 1 2 cbr 210 ------- 2 1.0 2.0 41 83
- 0.15475 1 2 cbr 210 ------- 2 1.0 2.0 41 83
r 0.1556 0 2 cbr 210 ------- 1 0.0 2.0 14 28
+ 0.1585 0 2 cbr 210 ------- 1 0.0 2.0 42 84
- 0.1585 0 2 cbr 210 ------- 1 0.0 2.0 42 84
+ 0.1585 1 2 cbr 210 ------- 2 1.0 2.0 42 85
- 0.1585 1 2 cbr 210 ------- 2 1.0 2.0 42 85
r 0.15935 0 2 cbr 210 ------- 1 0.0 2.0 15 30
+ 0.16225 0 2 cbr 210 ------- 1 0.0 2.0 43 86
- 0.16225 0 2 cbr 210 ------- 1 0.0 2.0 43 86
+ 0.16225 1 2 cbr 210 ------- 2 1.0 2.0 43 87
- 0.16225 1 2 cbr 210 ------- 2 1.0 2.0 43 87
r 0.1631 0 2 cbr 210 ------- 1 0.0 2.0 16 32
+ 0.166 0 2 cbr 210 ------- 1 0.0 2.0 44 88
- 0.166 0 2 cbr 210 ------- 1 0.0 2.0 44 88
+ 0.166 1 2 cbr 210 ------- 2 1.0 2.0 44 89
- 0.166 1 2 cbr 210 ------- 2 1.0 2.0 44 89
r 0.16685 0 2 cbr 210 ------- 1 0.0 2.0 17 34
+ 0.16975 0 2 cbr 210 ------- 1 0.0 2.0 45 90
- 0.16975 0 2 cbr 210 ------- 1 0.0 2.0 45 90
+ 0.16975 1 2 cbr 210 ------- 2 1.0 2.0 45 91
- 0.16975 1 2 cbr 210 ------- 2 1.0 2.0 45 91
r 0.1706 0 2 cbr 210 ------- 1 0.0 2.0 18 36
+ 0.1735 0 2 cbr 210 ------- 1 0.0 2.0 46 92
- 0.1735 0 2 cbr 210 ------- 1 0.0 2.0 46 92
+ 0.1735 1 2 cbr 210 ------- 2 1.0 2.0 46 93
- 0.1735 1 2 cbr 210 ------- 2 1.0 2.0 46 93
r 0.17435 0 2 cbr 210 ------- 1 0.0 2.0 19 38
+ 0.17725 0 2 cbr 210 ------- 1 0.0 2.0 47 94
- 0.17725 0 2 cbr 210 ------- 1 0.0 2.0 47 94
+ 0.17725 1 2 cbr 210 ------- 2 1.0 2.0 47 95
- 0.17725 1 2 cbr 210 ------- 2 1.0 2.0 47 95
r 0.1781 0 2 cbr 210 ------- 1 0.0 2.0 20 40
+ 0.181 0 2 cbr 210 ------- 1 0.0 2.0 48 96
- 0.181 0 2 cbr 210 ------- 1 0.0 2.0 48 96
+ 0.181 1 2 cbr 210 ------- 2 1.0 2.0 48 97
- 0.181 1 2 cbr 210 ------- 2 1.0 2.0 48 97
r 0.18185 0 2 cbr 210 ------- 1 0.0 2.0 21 42
+ 0.18475 0 2 cbr 210 ------- 1 0.0 2.0 49 98
- 0.18475 0 2 cbr 210 ------- 1 0.0 2.0 49 98
+ 0.18475 1 2 cbr 210 ------- 2 1.0 2.0 49 99
- 0.18475 1 2 cbr 210 ------- 2 1.0 2.0 49 99
r 0.1856 0 2 cbr 210 ------- 1 0.0 2.0 22 44
+ 0.1885 0 2 cbr 210 ------- 1 0.0 2.0 50 100
- 0.1885 0 2 cbr 210 ------- 1 0.0 2.0 50 100
+ 0.1885 1 2 cbr 210 ------- 2 1.0 2.0 50 101
- 0.1885 1 2 cbr 210 ------- 2 1.0 2.0 50 101
r 0.18935 0 2 cbr 210 ------- 1 0.0 2.0 23 46
+ 0.19225 0 2 cbr 210 ------- 1 0.0 2.0 51 102
- 0.19225 0 2 cbr 210 ------- 1 0.0 2.0 51 102
+ 0.19225 1 2 cbr 210 ------- 2 1.0 2.0 51 103
- 0.19225 1 2 cbr 210 ------- 2 1.0 2.0 51 103
r 0.1931 0 2 cbr 210 ------- 1 0.0 2.0 24 48
+ 0.196 0 2 cbr 210 ------- 1 0.0 2.0 52 104
- 0.196 0 2 cbr 210 ------- 1 0.0 2.0 52 104
+ 0.196 1 2 cbr 210 ------- 2 1.0 2.0 52 105
- 0.196 1 2 cbr 210 ------- 2 1.0 2.0 52 105
r 0.19685 0 2 cbr 210 ------- 1 0.0 2.0 25 50
+ 0.19975 0 2 cbr 210 ------- 1 0.0 2.0 53 106
- 0.19975 0 2 cbr 210 ------- 1 0.0 2.0 53 106
+ 0.19975 1 2 cbr 210 ------- 2 1.0 2.0 53 107
- 0.19975 1 2 cbr 210 ------- 2 1.0 2.0 53 107
r 0.2006 0 2 cbr 210 ------- 1 0.0 2.0 26 52
r 0.201336 1 2 cbr 210 ------- 2 1.0 2.0 0 1
+ 0.2035 0 2 cbr 210 ------- 1 0.0 2.0 54 108
- 0.2035 0 2 cbr 210 ------- 1 0.0 2.0 54 108
+ 0.2035 1 2 cbr 210 ------- 2 1.0 2.0 54 109
- 0.2035 1 2 cbr 210 ------- 2 1.0 2.0 54 109
r 0.20435 0 2 cbr 210 ------- 1 0.0 2.0 27 54
r 0.205086 1 2 cbr 210 ------- 2 1.0 2.0 1 3
+ 0.20725 0 2 cbr 210 ------- 1 0.0 2.0 55 110
- 0.20725 0 2 cbr 210 ------- 1 0.0 2.0 55 110
+ 0.20725 1 2 cbr 210 ------- 2 1.0 2.0 55 111
- 0.20725 1 2 cbr 210 ------- 2 1.0 2.0 55 111
r 0.2081 0 2 cbr 210 ------- 1 0.0 2.0 28 56
r 0.208836 1 2 cbr 210 ------- 2 1.0 2.0 2 5
+ 0.211 0 2 cbr 210 ------- 1 0.0 2.0 56 112
- 0.211 0 2 cbr 210 ------- 1 0.0 2.0 56 112
+ 0.211 1 2 cbr 210 ------- 2 1.0 2.0 56 113
- 0.211 1 2 cbr 210 ------- 2 1.0 2.0 56 113
r 0.21185 0 2 cbr 210 ------- 1 0.0 2.0 29 58
r 0.212586 1 2 cbr 210 ------- 2 1.0 2.0 3 7
+ 0.21475 0 2 cbr 210 ------- 1 0.0 2.0 57 114
- 0.21475 0 2 cbr 210 ------- 1 0.0 2.0 57 114
+ 0.21475 1 2 cbr 210 ------- 2 1.0 2.0 57 115
- 0.21475 1 2 cbr 210 ------- 2 1.0 2.0 57 115
r 0.2156 0 2 cbr 210 ------- 1 0.0 2.0 30 60
r 0.216336 1 2 cbr 210 ------- 2 1.0 2.0 4 9
+ 0.2185 0 2 cbr 210 ------- 1 0.0 2.0 58 116
- 0.2185 0 2 cbr 210 ------- 1 0.0 2.0 58 116
+ 0.2185 1 2 cbr 210 ------- 2 1.0 2.0 58 117
- 0.2185 1 2 cbr 210 ------- 2 1.0 2.0 58 117
r 0.21935 0 2 cbr 210 ------- 1 0.0 2.0 31 62
r 0.220086 1 2 cbr 210 ------- 2 1.0 2.0 5 11
+ 0.22225 0 2 cbr 210 ------- 1 0.0 2.0 59 118
- 0.22225 0 2 cbr 210 ------- 1 0.0 2.0 59 118
+ 0.22225 1 2 cbr 210 ------- 2 1.0 2.0 59 119
- 0.22225 1 2 cbr 210 ------- 2 1.0 2.0 59 119
r 0.2231 0 2 cbr 210 ------- 1 0.0 2.0 32 64
r 0.223836 1 2 cbr 210 ------- 2 1.0 2.0 6 13
+ 0.226 0 2 cbr 210 ------- 1 0.0 2.0 60 120
- 0.226 0 2 cbr 210 ------- 1 0.0 2.0 60 120
+ 0.226 1 2 cbr 210 ------- 2 1.0 2.0 60 121
- 0.226 1 2 cbr 210 ------- 2 1.0 2.0 60 121
r 0.22685 0 2 cbr 210 ------- 1 0.0 2.0 33 66
r 0.227586 1 2 cbr 210 ------- 2 1.0 2.0 7 15
+ 0.22975 0 2 cbr 210 ------- 1 0.0 2.0 61 122
- 0.22975 0 2 cbr 210 ------- 1 0.0 2.0 61 122
+ 0.22975 1 2 cbr 210 ------- 2 1.0 2.0 61 123
- 0.22975 1 2 cbr 210 ------- 2 1.0 2.0 61 123
r 0.2306 0 2 cbr 210 ------- 1 0.0 2.0 34 68
r 0.231336 1 2 cbr 210 ------- 2 1.0 2.0 8 17
+ 0.2335 0 2 cbr 210 ------- 1 0.0 2.0 62 124
- 0.2335 0 2 cbr 210 ------- 1 0.0 2.0 62 124
+ 0.2335 1 2 cbr 210 ------- 2 1.0 2.0 62 125
- 0.2335 1 2 cbr 210 ------- 2 1.0 2.0 62 125
r 0.23435 0 2 cbr 210 ------- 1 0.0 2.0 35 70
r 0.235086 1 2 cbr 210 ------- 2 1.0 2.0 9 19
+ 0.23725 0 2 cbr 210 ------- 1 0.0 2.0 63 126
- 0.23725 0 2 cbr 210 ------- 1 0.0 2.0 63 126
+ 0.23725 1 2 cbr 210 ------- 2 1.0 2.0 63 127
- 0.23725 1 2 cbr 210 ------- 2 1.0 2.0 63 127
r 0.2381 0 2 cbr 210 ------- 1 0.0 2.0 36 72
r 0.238836 1 2 cbr 210 ------- 2 1.0 2.0 10 21
+ 0.241 0 2 cbr 210 ------- 1 0.0 2.0 64 128
- 0.241 0 2 cbr 210 ------- 1 0.0 2.0 64 128
+ 0.241 1 2 cbr 210 ------- 2 1.0 2.0 64 129
- 0.241 1 2 cbr 210 ------- 2 1.0 2.0 64 129
r 0.24185 0 2 cbr 210 ------- 1 0.0 2.0 37 74
r 0.242586 1 2 cbr 210 ------- 2 1.0 2.0 11 23
+ 0.24475 0 2 cbr 210 ------- 1 0.0 2.0 65 130
- 0.24475 0 2 cbr 210 ------- 1 0.0 2.0 65 130
+ 0.24475 1 2 cbr 210 ------- 2 1.0 2.0 65 131
- 0.24475 1 2 cbr 210 ------- 2 1.0 2.0 65 131
r 0.2456 0 2 cbr 210 ------- 1 0.0 2.0 38 76
r 0.246336 1 2 cbr 210 ------- 2 1.0 2.0 12 25
+ 0.2485 0 2 cbr 210 ------- 1 0.0 2.0 66 132
- 0.2485 0 2 cbr 210 ------- 1 0.0 2.0 66 132
+ 0.2485 1 2 cbr 210 ------- 2 1.0 2.0 66 133
- 0.2485 1 2 cbr 210 ------- 2 1.0 2.0 66 133
r 0.24935 0 2 cbr 210 ------- 1 0.0 2.0 39 78
r 0.250086 1 2 cbr 210 ------- 2 1.0 2.0 13 27
+ 0.25225 0 2 cbr 210 ------- 1 0.0 2.0 67 134
- 0.25225 0 2 cbr 210 ------- 1 0.0 2.0 67 134
+ 0.25225 1 2 cbr 210 ------- 2 1.0 2.0 67 135
- 0.25225 1 2 cbr 210 ------- 2 1.0 2.0 67 135
r 0.2531 0 2 cbr 210 ------- 1 0.0 2.0 40 80
r 0.253836 1 2 cbr 210 ------- 2 1.0 2.0 14 29
+ 0.256 0 2 cbr 210 ------- 1 0.0 2.0 68 136
- 0.256 0 2 cbr 210 ------- 1 0.0 2.0 68 136
+ 0.256 1 2 cbr 210 ------- 2 1.0 2.0 68 137
- 0.256 1 2 cbr 210 ------- 2 1.0 2.0 68 137
r 0.25685 0 2 cbr 210 ------- 1 0.0 2.0 41 82
r 0.257586 1 2 cbr 210 ------- 2 1.0 2.0 15 31
+ 0.25975 0 2 cbr 210 ------- 1 0.0 2.0 69 138
- 0.25975 0 2 cbr 210 ------- 1 0.0 2.0 69 138
+ 0.25975 1 2 cbr 210 ------- 2 1.0 2.0 69 139
- 0.25975 1 2 cbr 210 ------- 2 1.0 2.0 69 139
r 0.2606 0 2 cbr 210 ------- 1 0.0 2.0 42 84
r 0.261336 1 2 cbr 210 ------- 2 1.0 2.0 16 33
+ 0.2635 0 2 cbr 210 ------- 1 0.0 2.0 70 140
- 0.2635 0 2 cbr 210 ------- 1 0.0 2.0 70 140
+ 0.2635 1 2 cbr 210 ------- 2 1.0 2.0 70 141
- 0.2635 1 2 cbr 210 ------- 2 1.0 2.0 70 141
r 0.26435 0 2 cbr 210 ------- 1 0.0 2.0 43 86
r 0.265086 1 2 cbr 210 ------- 2 1.0 2.0 17 35
+ 0.26725 0 2 cbr 210 ------- 1 0.0 2.0 71 142
- 0.26725 0 2 cbr 210 ------- 1 0.0 2.0 71 142
+ 0.26725 1 2 cbr 210 ------- 2 1.0 2.0 71 143
- 0.26725 1 2 cbr 210 ------- 2 1.0 2.0 71 143
r 0.2681 0 2 cbr 210 ------- 1 0.0 2.0 44 88
r 0.268836 1 2 cbr 210 ------- 2 1.0 2.0 18 37
+ 0.271 0 2 cbr 210 ------- 1 0.0 2.0 72 144
- 0.271 0 2 cbr 210 ------- 1 0.0 2.0 72 144
+ 0.271 1 2 cbr 210 ------- 2 1.0 2.0 72 145
- 0.271 1 2 cbr 210 ------- 2 1.0 2.0 72 145
r 0.27185 0 2 cbr 210 ------- 1 0.0 2.0 45 90
r 0.272586 1 2 cbr 210 ------- 2 1.0 2.0 19 39
+ 0.27475 0 2 cbr 210 ------- 1 0.0 2.0 73 146
- 0.27475 0 2 cbr 210 ------- 1 0.0 2.0 73 146
+ 0.27475 1 2 cbr 210 ------- 2 1.0 2.0 73 147
- 0.27475 1 2 cbr 210 ------- 2 1.0 2.0 73 147
r 0.2756 0 2 cbr 210 ------- 1 0.0 2.0 46 92
r 0.276336 1 2 cbr 210 ------- 2 1.0 2.0 20 41
+ 0.2785 0 2 cbr 210 ------- 1 0.0 2.0 74 148
- 0.2785 0 2 cbr 210 ------- 1 0.0 2.0 74 148
+ 0.2785 1 2 cbr 210 ------- 2 1.0 2.0 74 149
- 0.2785 1 2 cbr 210 ------- 2 1.0 2.0 74 149
r 0.27935 0 2 cbr 210 ------- 1 0.0 2.0 47 94
r 0.280086 1 2 cbr 210 ------- 2 1.0 2.0 21 43
+ 0.28225 0 2 cbr 210 ------- 1 0.0 2.0 75 150
- 0.28225 0 2 cbr 210 ------- 1 0.0 2.0 75 150
+ 0.28225 1 2 cbr 210 ------- 2 1.0 2.0 75 151
- 0.28225 1 2 cbr 210 ------- 2 1.0 2.0 75 151
r 0.2831 0 2 cbr 210 ------- 1 0.0 2.0 48 96
r 0.283836 1 2 cbr 210 ------- 2 1.0 2.0 22 45
+ 0.286 0 2 cbr 210 ------- 1 0.0 2.0 76 152
- 0.286 0 2 cbr 210 ------- 1 0.0 2.0 76 152
+ 0.286 1 2 cbr 210 ------- 2 1.0 2.0 76 153
- 0.286 1 2 cbr 210 ------- 2 1.0 2.0 76 153
r 0.28685 0 2 cbr 210 ------- 1 0.0 2.0 49 98
r 0.287586 1 2 cbr 210 ------- 2 1.0 2.0 23 47
+ 0.28975 0 2 cbr 210 ------- 1 0.0 2.0 77 154
- 0.28975 0 2 cbr 210 ------- 1 0.0 2.0 77 154
+ 0.28975 1 2 cbr 210 ------- 2 1.0 2.0 77 155
- 0.28975 1 2 cbr 210 ------- 2 1.0 2.0 77 155
r 0.2906 0 2 cbr 210 ------- 1 0.0 2.0 50 100
r 0.291336 1 2 cbr 210 ------- 2 1.0 2.0 24 49
+ 0.2935 0 2 cbr 210 ------- 1 0.0 2.0 78 156
- 0.2935 0 2 cbr 210 ------- 1 0.0 2.0 78 156
+ 0.2935 1 2 cbr 210 ------- 2 1.0 2.0 78 157
- 0.2935 1 2 cbr 210 ------- 2 1.0 2.0 78 157
r 0.29435 0 2 cbr 210 ------- 1 0.0 2.0 51 102
r 0.295086 1 2 cbr 210 ------- 2 1.0 2.0 25 51
+ 0.29725 0 2 cbr 210 ------- 1 0.0 2.0 79 158
- 0.29725 0 2 cbr 210 ------- 1 0.0 2.0 79 158
+ 0.29725 1 2 cbr 210 ------- 2 1.0 2.0 79 159
- 0.29725 1 2 cbr 210 ------- 2 1.0 2.0 79 159
r 0.2981 0 2 cbr 210 ------- 1 0.0 2.0 52 104
r 0.298836 1 2 cbr 210 ------- 2 1.0 2.0 26 53
+ 0.301 0 2 cbr 210 ------- 1 0.0 2.0 80 160
- 0.301 0 2 cbr 210 ------- 1 0.0 2.0 80 160
+ 0.301 1 2 cbr 210 ------- 2 1.0 2.0 80 161
- 0.301 1 2 cbr 210 ------- 2 1.0 2.0 80 161
r 0.30185 0 2 cbr 210 ------- 1 0.0 2.0 53 106
r 0.302586 1 2 cbr 210 ------- 2 1.0 2.0 27 55
+ 0.30475 0 2 cbr 210 ------- 1 0.0 2.0 81 162
- 0.30475 0 2 cbr 210 ------- 1 0.0 2.0 81 162
+ 0.30475 1 2 cbr 210 ------- 2 1.0 2.0 81 163
- 0.30475 1 2 cbr 210 ------- 2 1.0 2.0 81 163
r 0.3056 0 2 cbr 210 ------- 1 0.0 2.0 54 108
r 0.306336 1 2 cbr 210 ------- 2 1.0 2.0 28 57
+ 0.3085 0 2 cbr 210 ------- 1 0.0 2.0 82 164
- 0.3085 0 2 cbr 210 ------- 1 0.0 2.0 82 164
+ 0.3085 1 2 cbr 210 ------- 2 1.0 2.0 82 165
- 0.3085 1 2 cbr 210 ------- 2 1.0 2.0 82 165
r 0.30935 0 2 cbr 210 ------- 1 0.0 2.0 55 110
r 0.310086 1 2 cbr 210 ------- 2 1.0 2.0 29 59
+ 0.31225 0 2 cbr 210 ------- 1 0.0 2.0 83 166
- 0.31225 0 2 cbr 210 ------- 1 0.0 2.0 83 166
+ 0.31225 1 2 cbr 210 ------- 2 1.0 2.0 83 167
- 0.31225 1 2 cbr 210 ------- 2 1.0 2.0 83 167
r 0.3131 0 2 cbr 210 ------- 1 0.0 2.0 56 112
r 0.313836 1 2 cbr 210 ------- 2 1.0 2.0 30 61
+ 0.316 0 2 cbr 210 ------- 1 0.0 2.0 84 168
- 0.316 0 2 cbr 210 ------- 1 0.0 2.0 84 168
+ 0.316 1 2 cbr 210 ------- 2 1.0 2.0 84 169
- 0.316 1 2 cbr 210 ------- 2 1.0 2.0 84 169
r 0.31685 0 2 cbr 210 ------- 1 0.0 2.0 57 114
r 0.317586 1 2 cbr 210 ------- 2 1.0 2.0 31 63
+ 0.31975 0 2 cbr 210 ------- 1 0.0 2.0 85 170
- 0.31975 0 2 cbr 210 ------- 1 0.0 2.0 85 170
+ 0.31975 1 2 cbr 210 ------- 2 1.0 2.0 85 171
- 0.31975 1 2 cbr 210 ------- 2 1.0 2.0 85 171
r 0.3206 0 2 cbr 210 ------- 1 0.0 2.0 58 116
r 0.321336 1 2 cbr 210 ------- 2 1.0 2.0 32 65
+ 0.3235 0 2 cbr 210 ------- 1 0.0 2.0 86 172
- 0.3235 0 2 cbr 210 ------- 1 0.0 2.0 86 172
+ 0.3235 1 2 cbr 210 ------- 2 1.0 2.0 86 173
- 0.3235 1 2 cbr 210 ------- 2 1.0 2.0 86 173
r 0.32435 0 2 cbr 210 ------- 1 0.0 2.0 59 118
r 0.325086 1 2 cbr 210 ------- 2 1.0 2.0 33 67
+ 0.32725 0 2 cbr 210 ------- 1 0.0 2.0 87 174
- 0.32725 0 2 cbr 210 ------- 1 0.0 2.0 87 174
+ 0.32725 1 2 cbr 210 ------- 2 1.0 2.0 87 175
- 0.32725 1 2 cbr 210 ------- 2 1.0 2.0 87 175
r 0.3281 0 2 cbr 210 ------- 1 0.0 2.0 60 120
r 0.328836 1 2 cbr 210 ------- 2 1.0 2.0 34 69
+ 0.331 0 2 cbr 210 ------- 1 0.0 2.0 88 176
- 0.331 0 2 cbr 210 ------- 1 0.0 2.0 88 176
+ 0.331 1 2 cbr 210 ------- 2 1.0 2.0 88 177
- 0.331 1 2 cbr 210 ------- 2 1.0 2.0 88 177
r 0.33185 0 2 cbr 210 ------- 1 0.0 2.0 61 122
r 0.332586 1 2 cbr 210 ------- 2 1.0 2.0 35 71
+ 0.33475 0 2 cbr 210 ------- 1 0.0 2.0 89 178
- 0.33475 0 2 cbr 210 ------- 1 0.0 2.0 89 178
+ 0.33475 1 2 cbr 210 ------- 2 1.0 2.0 89 179
- 0.33475 1 2 cbr 210 ------- 2 1.0 2.0 89 179
r 0.3356 0 2 cbr 210 ------- 1 0.0 2.0 62 124
r 0.336336 1 2 cbr 210 ------- 2 1.0 2.0 36 73
+ 0.3385 0 2 cbr 210 ------- 1 0.0 2.0 90 180
- 0.3385 0 2 cbr 210 ------- 1 0.0 2.0 90 180
+ 0.3385 1 2 cbr 210 ------- 2 1.0 2.0 90 181
- 0.3385 1 2 cbr 210 ------- 2 1.0 2.0 90 181
r 0.33935 0 2 cbr 210 ------- 1 0.0 2.0 63 126
r 0.340086 1 2 cbr 210 ------- 2 1.0 2.0 37 75
+ 0.34225 0 2 cbr 210 ------- 1 0.0 2.0 91 182
- 0.34225 0 2 cbr 210 ------- 1 0.0 2.0 91 182
+ 0.34225 1 2 cbr 210 ------- 2 1.0 2.0 91 183
- 0.34225 1 2 cbr 210 ------- 2 1.0 2.0 91 183
r 0.3431 0 2 cbr 210 ------- 1 0.0 2.0 64 128
r 0.343836 1 2 cbr 210 ------- 2 1.0 2.0 38 77
+ 0.346 0 2 cbr 210 ------- 1 0.0 2.0 92 184
- 0.346 0 2 cbr 210 ------- 1 0.0 2.0 92 184
+ 0.346 1 2 cbr 210 ------- 2 1.0 2.0 92 185
- 0.346 1 2 cbr 210 ------- 2 1.0 2.0 92 185
r 0.34685 0 2 cbr 210 ------- 1 0.0 2.0 65 130
r 0.347586 1 2 cbr 210 ------- 2 1.0 2.0 39 79
+ 0.34975 0 2 cbr 210 ------- 1 0.0 2.0 93 186
- 0.34975 0 2 cbr 210 ------- 1 0.0 2.0 93 186
+ 0.34975 1 2 cbr 210 ------- 2 1.0 2.0 93 187
- 0.34975 1 2 cbr 210 ------- 2 1.0 2.0 93 187
r 0.3506 0 2 cbr 210 ------- 1 0.0 2.0 66 132
r 0.351336 1 2 cbr 210 ------- 2 1.0 2.0 40 81
+ 0.3535 0 2 cbr 210 ------- 1 0.0 2.0 94 188
- 0.3535 0 2 cbr 210 ------- 1 0.0 2.0 94 188
+ 0.3535 1 2 cbr 210 ------- 2 1.0 2.0 94 189
- 0.3535 1 2 cbr 210 ------- 2 1.0 2.0 94 189
r 0.35435 0 2 cbr 210 ------- 1 0.0 2.0 67 134
r 0.355086 1 2 cbr 210 ------- 2 1.0 2.0 41 83
+ 0.35725 0 2 cbr 210 ------- 1 0.0 2.0 95 190
- 0.35725 0 2 cbr 210 ------- 1 0.0 2.0 95 190
+ 0.35725 1 2 cbr 210 ------- 2 1.0 2.0 95 191
- 0.35725 1 2 cbr 210 ------- 2 1.0 2.0 95 191
r 0.3581 0 2 cbr 210 ------- 1 0.0 2.0 68 136
r 0.358836 1 2 cbr 210 ------- 2 1.0 2.0 42 85
+ 0.361 0 2 cbr 210 ------- 1 0.0 2.0 96 192
- 0.361 0 2 cbr 210 ------- 1 0.0 2.0 96 192
+ 0.361 1 2 cbr 210 ------- 2 1.0 2.0 96 193
- 0.361 1 2 cbr 210 ------- 2 1.0 2.0 96 193
r 0.36185 0 2 cbr 210 ------- 1 0.0 2.0 69 138
r 0.362586 1 2 cbr 210 ------- 2 1.0 2.0 43 87
+ 0.36475 0 2 cbr 210 ------- 1 0.0 2.0 97 194
- 0.36475 0 2 cbr 210 ------- 1 0.0 2.0 97 194
+ 0.36475 1 2 cbr 210 ------- 2 1.0 2.0 97 195
- 0.36475 1 2 cbr 210 ------- 2 1.0 2.0 97 195
r 0.3656 0 2 cbr 210 ------- 1 0.0 2.0 70 140
r 0.366336 1 2 cbr 210 ------- 2 1.0 2.0 44 89
+ 0.3685 0 2 cbr 210 ------- 1 0.0 2.0 98 196
- 0.3685 0 2 cbr 210 ------- 1 0.0 2.0 98 196
+ 0.3685 1 2 cbr 210 ------- 2 1.0 2.0 98 197
- 0.3685 1 2 cbr 210 ------- 2 1.0 2.0 98 197
r 0.36935 0 2 cbr 210 ------- 1 0.0 2.0 71 142
r 0.370086 1 2 cbr 210 ------- 2 1.0 2.0 45 91
+ 0.37225 0 2 cbr 210 ------- 1 0.0 2.0 99 198
- 0.37225 0 2 cbr 210 ------- 1 0.0 2.0 99 198
+ 0.37225 1 2 cbr 210 ------- 2 1.0 2.0 99 199
- 0.37225 1 2 cbr 210 ------- 2 1.0 2.0 99 199
r 0.3731 0 2 cbr 210 ------- 1 0.0 2.0 72 144
r 0.373836 1 2 cbr 210 ------- 2 1.0 2.0 46 93
+ 0.376 0 2 cbr 210 ------- 1 0.0 2.0 100 200
- 0.376 0 2 cbr 210 ------- 1 0.0 2.0 100 200
+ 0.376 1 2 cbr 210 ------- 2 1.0 2.0 100 201
- 0.376 1 2 cbr 210 ------- 2 1.0 2.0 100 201
r 0.37685 0 2 cbr 210 ------- 1 0.0 2.0 73 146
r 0.377586 1 2 cbr 210 ------- 2 1.0 2.0 47 95
+ 0.37975 0 2 cbr 210 ------- 1 0.0 2.0 101 202
- 0.37975 0 2 cbr 210 ------- 1 0.0 2.0 101 202
+ 0.37975 1 2 cbr 210 ------- 2 1.0 2.0 101 203
- 0.37975 1 2 cbr 210 ------- 2 1.0 2.0 101 203
r 0.3806 0 2 cbr 210 ------- 1 0.0 2.0 74 148
r 0.381336 1 2 cbr 210 ------- 2 1.0 2.0 48 97
+ 0.3835 0 2 cbr 210 ------- 1 0.0 2.0 102 204
- 0.3835 0 2 cbr 210 ------- 1 0.0 2.0 102 204
+ 0.3835 1 2 cbr 210 ------- 2 1.0 2.0 102 205
- 0.3835 1 2 cbr 210 ------- 2 1.0 2.0 102 205
r 0.38435 0 2 cbr 210 ------- 1 0.0 2.0 75 150
r 0.385086 1 2 cbr 210 ------- 2 1.0 2.0 49 99
+ 0.38725 0 2 cbr 210 ------- 1 0.0 2.0 103 206
- 0.38725 0 2 cbr 210 ------- 1 0.0 2.0 103 206
+ 0.38725 1 2 cbr 210 ------- 2 1.0 2.0 103 207
- 0.38725 1 2 cbr 210 ------- 2 1.0 2.0 103 207
r 0.3881 0 2 cbr 210 ------- 1 0.0 2.0 76 152
r 0.388836 1 2 cbr 210 ------- 2 1.0 2.0 50 101
+ 0.391 0 2 cbr 210 ------- 1 0.0 2.0 104 208
- 0.391 0 2 cbr 210 ------- 1 0.0 2.0 104 208
+ 0.391 1 2 cbr 210 ------- 2 1.0 2.0 104 209
- 0.391 1 2 cbr 210 ------- 2 1.0 2.0 104 209
r 0.39185 0 2 cbr 210 ------- 1 0.0 2.0 77 154
r 0.392586 1 2 cbr 210 ------- 2 1.0 2.0 51 103
+ 0.39475 0 2 cbr 210 ------- 1 0.0 2.0 105 210
- 0.39475 0 2 cbr 210 ------- 1 0.0 2.0 105 210
+ 0.39475 1 2 cbr 210 ------- 2 1.0 2.0 105 211
- 0.39475 1 2 cbr 210 ------- 2 1.0 2.0 105 211
r 0.3956 0 2 cbr 210 ------- 1 0.0 2.0 78 156
r 0.396336 1 2 cbr 210 ------- 2 1.0 2.0 52 105
+ 0.3985 0 2 cbr 210 ------- 1 0.0 2.0 106 212
- 0.3985 0 2 cbr 210 ------- 1 0.0 2.0 106 212
+ 0.3985 1 2 cbr 210 ------- 2 1.0 2.0 106 213
- 0.3985 1 2 cbr 210 ------- 2 1.0 2.0 106 213
r 0.39935 0 2 cbr 210 ------- 1 0.0 2.0 79 158
r 0.400086 1 2 cbr 210 ------- 2 1.0 2.0 53 107
+ 0.40225 0 2 cbr 210 ------- 1 0.0 2.0 107 214
- 0.40225 0 2 cbr 210 ------- 1 0.0 2.0 107 214
+ 0.40225 1 2 cbr 210 ------- 2 1.0 2.0 107 215
- 0.40225 1 2 cbr 210 ------- 2 1.0 2.0 107 215
r 0.4031 0 2 cbr 210 ------- 1 0.0 2.0 80 160
r 0.403836 1 2 cbr 210 ------- 2 1.0 2.0 54 109
+ 0.406 0 2 cbr 210 ------- 1 0.0 2.0 108 216
- 0.406 0 2 cbr 210 ------- 1 0.0 2.0 108 216
+ 0.406 1 2 cbr 210 ------- 2 1.0 2.0 108 217
- 0.406 1 2 cbr 210 ------- 2 1.0 2.0 108 217
r 0.40685 0 2 cbr 210 ------- 1 0.0 2.0 81 162
r 0.407586 1 2 cbr 210 ------- 2 1.0 2.0 55 111
+ 0.40975 0 2 cbr 210 ------- 1 0.0 2.0 109 218
- 0.40975 0 2 cbr 210 ------- 1 0.0 2.0 109 218
+ 0.40975 1 2 cbr 210 ------- 2 1.0 2.0 109 219
- 0.40975 1 2 cbr 210 ------- 2 1.0 2.0 109 219
r 0.4106 0 2 cbr 210 ------- 1 0.0 2.0 82 164
r 0.411336 1 2 cbr 210 ------- 2 1.0 2.0 56 113
+ 0.4135 0 2 cbr 210 ------- 1 0.0 2.0 110 220
- 0.4135 0 2 cbr 210 ------- 1 0.0 2.0 110 220
+ 0.4135 1 2 cbr 210 ------- 2 1.0 2.0 110 221
- 0.4135 1 2 cbr 210 ------- 2 1.0 2.0 110 221
r 0.41435 0 2 cbr 210 ------- 1 0.0 2.0 83 166
r 0.415086 1 2 cbr 210 ------- 2 1.0 2.0 57 115
+ 0.41725 0 2 cbr 210 ------- 1 0.0 2.0 111 222
- 0.41725 0 2 cbr 210 ------- 1 0.0 2.0 111 222
+ 0.41725 1 2 cbr 210 ------- 2 1.0 2.0 111 223
- 0.41725 1 2 cbr 210 ------- 2 1.0 2.0 111 223
r 0.4181 0 2 cbr 210 ------- 1 0.0 2.0 84 168
r 0.418836 1 2 cbr 210 ------- 2 1.0 2.0 58 117
+ 0.421 0 2 cbr 210 ------- 1 0.0 2.0 112 224
- 0.421 0 2 cbr 210 ------- 1 0.0 2.0 112 224
+ 0.421 1 2 cbr 210 ------- 2 1.0 2.0 112 225
- 0.421 1 2 cbr 210 ------- 2 1.0 2.0 112 225
r 0.42185 0 2 cbr 210 ------- 1 0.0 2.0 85 170
r 0.422586 1 2 cbr 210 ------- 2 1.0 2.0 59 119
+ 0.42475 0 2 cbr 210 ------- 1 0.0 2.0 113 226
- 0.42475 0 2 cbr 210 ------- 1 0.0 2.0 113 226
+ 0.42475 1 2 cbr 210 ------- 2 1.0 2.0 113 227
- 0.42475 1 2 cbr 210 ------- 2 1.0 2.0 113 227
r 0.4256 0 2 cbr 210 ------- 1 0.0 2.0 86 172
r 0.426336 1 2 cbr 210 ------- 2 1.0 2.0 60 121
+ 0.4285 0 2 cbr 210 ------- 1 0.0 2.0 114 228
- 0.4285 0 2 cbr 210 ------- 1 0.0 2.0 114 228
+ 0.4285 1 2 cbr 210 ------- 2 1.0 2.0 114 229
- 0.4285 1 2 cbr 210 ------- 2 1.0 2.0 114 229
r 0.42935 0 2 cbr 210 ------- 1 0.0 2.0 87 174
r 0.430086 1 2 cbr 210 ------- 2 1.0 2.0 61 123
+ 0.43225 0 2 cbr 210 ------- 1 0.0 2.0 115 230
- 0.43225 0 2 cbr 210 ------- 1 0.0 2.0 115 230
+ 0.43225 1 2 cbr 210 ------- 2 1.0 2.0 115 231
- 0.43225 1 2 cbr 210 ------- 2 1.0 2.0 115 231
r 0.4331 0 2 cbr 210 ------- 1 0.0 2.0 88 176
r 0.433836 1 2 cbr 210 ------- 2 1.0 2.0 62 125
+ 0.436 0 2 cbr 210 ------- 1 0.0 2.0 116 232
- 0.436 0 2 cbr 210 ------- 1 0.0 2.0 116 232
+ 0.436 1 2 cbr 210 ------- 2 1.0 2.0 116 233
- 0.436 1 2 cbr 210 ------- 2 1.0 2.0 116 233
r 0.43685 0 2 cbr 210 ------- 1 0.0 2.0 89 178
r 0.437586 1 2 cbr 210 ------- 2 1.0 2.0 63 127
+ 0.43975 0 2 cbr 210 ------- 1 0.0 2.0 117 234
- 0.43975 0 2 cbr 210 ------- 1 0.0 2.0 117 234
+ 0.43975 1 2 cbr 210 ------- 2 1.0 2.0 117 235
- 0.43975 1 2 cbr 210 ------- 2 1.0 2.0 117 235
r 0.4406 0 2 cbr 210 ------- 1 0.0 2.0 90 180
r 0.441336 1 2 cbr 210 ------- 2 1.0 2.0 64 129
+ 0.4435 0 2 cbr 210 ------- 1 0.0 2.0 118 236
- 0.4435 0 2 cbr 210 ------- 1 0.0 2.0 118 236
+ 0.4435 1 2 cbr 210 ------- 2 1.0 2.0 118 237
- 0.4435 1 2 cbr 210 ------- 2 1.0 2.0 118 237
r 0.44435 0 2 cbr 210 ------- 1 0.0 2.0 91 182
r 0.445086 1 2 cbr 210 ------- 2 1.0 2.0 65 131
+ 0.44725 0 2 cbr 210 ------- 1 0.0 2.0 119 238
- 0.44725 0 2 cbr 210 ------- 1 0.0 2.0 119 238
+ 0.44725 1 2 cbr 210 ------- 2 1.0 2.0 119 239
- 0.44725 1 2 cbr 210 ------- 2 1.0 2.0 119 239
r 0.4481 0 2 cbr 210 ------- 1 0.0 2.0 92 184
r 0.448836 1 2 cbr 210 ------- 2 1.0 2.0 66 133
+ 0.451 0 2 cbr 210 ------- 1 0.0 2.0 120 240
- 0.451 0 2 cbr 210 ------- 1 0.0 2.0 120 240
+ 0.451 1 2 cbr 210 ------- 2 1.0 2.0 120 241
- 0.451 1 2 cbr 210 ------- 2 1.0 2.0 120 241
r 0.45185 0 2 cbr 210 ------- 1 0.0 2.0 93 186
r 0.452586 1 2 cbr 210 ------- 2 1.0 2.0 67 135
+ 0.45475 0 2 cbr 210 ------- 1 0.0 2.0 121 242
- 0.45475 0 2 cbr 210 ------- 1 0.0 2.0 121 242
+ 0.45475 1 2 cbr 210 ------- 2 1.0 2.0 121 243
- 0.45475 1 2 cbr 210 ------- 2 1.0 2.0 121 243
r 0.4556 0 2 cbr 210 ------- 1 0.0 2.0 94 188
r 0.456336 1 2 cbr 210 ------- 2 1.0 2.0 68 137