+ 0.001 0 2 cbr 210 ------- 1 0.0 2.0 0 0
- 0.001 0 2 cbr 210 ------- 1 0.0 2.0 0 0
+ 0.001 1 2 cbr 500 ------- 2 1.0 2.0 0 1
- 0.001 1 2 cbr 500 ------- 2 1.0 2.0 0 1
+ 0.002 1 2 cbr 500 ------- 2 1.0 2.0 1 2
- 0.002 1 2 cbr 500 ------- 2 1.0 2.0 1 2
+ 0.003 1 2 cbr 500 ------- 2 1.0 2.0 2 3
- 0.003 1 2 cbr 500 ------- 2 1.0 2.0 2 3
+ 0.004 1 2 cbr 500 ------- 2 1.0 2.0 3 4
- 0.004 1 2 cbr 500 ------- 2 1.0 2.0 3 4
+ 0.00475 0 2 cbr 210 ------- 1 0.0 2.0 1 5
+ 0.005 1 2 cbr 500 ------- 2 1.0 2.0 4 6
- 0.005 1 2 cbr 500 ------- 2 1.0 2.0 4 6
+ 0.006 1 2 cbr 500 ------- 2 1.0 2.0 5 7
- 0.006 1 2 cbr 500 ------- 2 1.0 2.0 5 7
+ 0.007 1 2 cbr 500 ------- 2 1.0 2.0 6 8
- 0.007 1 2 cbr 500 ------- 2 1.0 2.0 6 8
+ 0.008 1 2 cbr 500 ------- 2 1.0 2.0 7 9
- 0.008 1 2 cbr 500 ------- 2 1.0 2.0 7 9
+ 0.0085 0 2 cbr 210 ------- 1 0.0 2.0 2 10
+ 0.009 1 2 cbr 500 ------- 2 1.0 2.0 8 11
- 0.009 1 2 cbr 500 ------- 2 1.0 2.0 8 11
+ 0.01 1 2 cbr 500 ------- 2 1.0 2.0 9 12
- 0.01 1 2 cbr 500 ------- 2 1.0 2.0 9 12
+ 0.011 1 2 cbr 500 ------- 2 1.0 2.0 10 13
- 0.011 1 2 cbr 500 ------- 2 1.0 2.0 10 13
+ 0.012 1 2 cbr 500 ------- 2 1.0 2.0 11 14
- 0.012 1 2 cbr 500 ------- 2 1.0 2.0 11 14
+ 0.01225 0 2 cbr 210 ------- 1 0.0 2.0 3 15
+ 0.013 1 2 cbr 500 ------- 2 1.0 2.0 12 16
- 0.013 1 2 cbr 500 ------- 2 1.0 2.0 12 16
+ 0.014 1 2 cbr 500 ------- 2 1.0 2.0 13 17
- 0.014 1 2 cbr 500 ------- 2 1.0 2.0 13 17
+ 0.015 1 2 cbr 500 ------- 2 1.0 2.0 14 18
- 0.015 1 2 cbr 500 ------- 2 1.0 2.0 14 18
+ 0.016 0 2 cbr 210 ------- 1 0.0 2.0 4 19
+ 0.016 1 2 cbr 500 ------- 2 1.0 2.0 15 20
- 0.016 1 2 cbr 500 ------- 2 1.0 2.0 15 20
+ 0.017 1 2 cbr 500 ------- 2 1.0 2.0 16 21
- 0.017 1 2 cbr 500 ------- 2 1.0 2.0 16 21
+ 0.018 1 2 cbr 500 ------- 2 1.0 2.0 17 22
- 0.018 1 2 cbr 500 ------- 2 1.0 2.0 17 22
+ 0.019 1 2 cbr 500 ------- 2 1.0 2.0 18 23
- 0.019 1 2 cbr 500 ------- 2 1.0 2.0 18 23
+ 0.01975 0 2 cbr 210 ------- 1 0.0 2.0 5 24
+ 0.02 1 2 cbr 500 ------- 2 1.0 2.0 19 25
- 0.02 1 2 cbr 500 ------- 2 1.0 2.0 19 25
+ 0.021 1 2 cbr 500 ------- 2 1.0 2.0 20 26
- 0.021 1 2 cbr 500 ------- 2 1.0 2.0 20 26
+ 0.022 1 2 cbr 500 ------- 2 1.0 2.0 21 27
- 0.022 1 2 cbr 500 ------- 2 1.0 2.0 21 27
+ 0.023 1 2 cbr 500 ------- 2 1.0 2.0 22 28
- 0.023 1 2 cbr 500 ------- 2 1.0 2.0 22 28
+ 0.0235 0 2 cbr 210 ------- 1 0.0 2.0 6 29
+ 0.024 1 2 cbr 500 ------- 2 1.0 2.0 23 30
- 0.024 1 2 cbr 500 ------- 2 1.0 2.0 23 30
+ 0.025 1 2 cbr 500 ------- 2 1.0 2.0 24 31
- 0.025 1 2 cbr 500 ------- 2 1.0 2.0 24 31
+ 0.026 1 2 cbr 500 ------- 2 1.0 2.0 25 32
- 0.026 1 2 cbr 500 ------- 2 1.0 2.0 25 32
+ 0.027 1 2 cbr 500 ------- 2 1.0 2.0 26 33
- 0.027 1 2 cbr 500 ------- 2 1.0 2.0 26 33
+ 0.02725 0 2 cbr 210 ------- 1 0.0 2.0 7 34
+ 0.028 1 2 cbr 500 ------- 2 1.0 2.0 27 35
- 0.028 1 2 cbr 500 ------- 2 1.0 2.0 27 35
+ 0.029 1 2 cbr 500 ------- 2 1.0 2.0 28 36
- 0.029 1 2 cbr 500 ------- 2 1.0 2.0 28 36
+ 0.03 1 2 cbr 500 ------- 2 1.0 2.0 29 37
- 0.03 1 2 cbr 500 ------- 2 1.0 2.0 29 37
+ 0.031 0 2 cbr 210 ------- 1 0.0 2.0 8 38
+ 0.031 1 2 cbr 500 ------- 2 1.0 2.0 30 39
- 0.031 1 2 cbr 500 ------- 2 1.0 2.0 30 39
+ 0.032 1 2 cbr 500 ------- 2 1.0 2.0 31 40
- 0.032 1 2 cbr 500 ------- 2 1.0 2.0 31 40
+ 0.033 1 2 cbr 500 ------- 2 1.0 2.0 32 41
- 0.033 1 2 cbr 500 ------- 2 1.0 2.0 32 41
+ 0.034 1 2 cbr 500 ------- 2 1.0 2.0 33 42
- 0.034 1 2 cbr 500 ------- 2 1.0 2.0 33 42
+ 0.03475 0 2 cbr 210 ------- 1 0.0 2.0 9 43
+ 0.035 1 2 cbr 500 ------- 2 1.0 2.0 34 44
- 0.035 1 2 cbr 500 ------- 2 1.0 2.0 34 44
+ 0.036 1 2 cbr 500 ------- 2 1.0 2.0 35 45
- 0.036 1 2 cbr 500 ------- 2 1.0 2.0 35 45
+ 0.037 1 2 cbr 500 ------- 2 1.0 2.0 36 46
- 0.037 1 2 cbr 500 ------- 2 1.0 2.0 36 46
+ 0.038 1 2 cbr 500 ------- 2 1.0 2.0 37 47
- 0.038 1 2 cbr 500 ------- 2 1.0 2.0 37 47
+ 0.0385 0 2 cbr 210 ------- 1 0.0 2.0 10 48
+ 0.039 1 2 cbr 500 ------- 2 1.0 2.0 38 49
- 0.039 1 2 cbr 500 ------- 2 1.0 2.0 38 49
+ 0.04 1 2 cbr 500 ------- 2 1.0 2.0 39 50
- 0.04 1 2 cbr 500 ------- 2 1.0 2.0 39 50
+ 0.041 1 2 cbr 500 ------- 2 1.0 2.0 40 51
- 0.041 1 2 cbr 500 ------- 2 1.0 2.0 40 51
+ 0.042 1 2 cbr 500 ------- 2 1.0 2.0 41 52
- 0.042 1 2 cbr 500 ------- 2 1.0 2.0 41 52
+ 0.04225 0 2 cbr 210 ------- 1 0.0 2.0 11 53
+ 0.043 1 2 cbr 500 ------- 2 1.0 2.0 42 54
- 0.043 1 2 cbr 500 ------- 2 1.0 2.0 42 54
+ 0.044 1 2 cbr 500 ------- 2 1.0 2.0 43 55
- 0.044 1 2 cbr 500 ------- 2 1.0 2.0 43 55
+ 0.045 1 2 cbr 500 ------- 2 1.0 2.0 44 56
- 0.045 1 2 cbr 500 ------- 2 1.0 2.0 44 56
+ 0.046 0 2 cbr 210 ------- 1 0.0 2.0 12 57
+ 0.046 1 2 cbr 500 ------- 2 1.0 2.0 45 58
- 0.046 1 2 cbr 500 ------- 2 1.0 2.0 45 58
+ 0.047 1 2 cbr 500 ------- 2 1.0 2.0 46 59
- 0.047 1 2 cbr 500 ------- 2 1.0 2.0 46 59
+ 0.048 1 2 cbr 500 ------- 2 1.0 2.0 47 60
- 0.048 1 2 cbr 500 ------- 2 1.0 2.0 47 60
+ 0.049 1 2 cbr 500 ------- 2 1.0 2.0 48 61
- 0.049 1 2 cbr 500 ------- 2 1.0 2.0 48 61
+ 0.04975 0 2 cbr 210 ------- 1 0.0 2.0 13 62
+ 0.05 1 2 cbr 500 ------- 2 1.0 2.0 49 63
- 0.05 1 2 cbr 500 ------- 2 1.0 2.0 49 63
+ 0.051 1 2 cbr 500 ------- 2 1.0 2.0 50 64
- 0.051 1 2 cbr 500 ------- 2 1.0 2.0 50 64
+ 0.052 1 2 cbr 500 ------- 2 1.0 2.0 51 65
- 0.052 1 2 cbr 500 ------- 2 1.0 2.0 51 65
+ 0.053 1 2 cbr 500 ------- 2 1.0 2.0 52 66
- 0.053 1 2 cbr 500 ------- 2 1.0 2.0 52 66
+ 0.0535 0 2 cbr 210 ------- 1 0.0 2.0 14 67
+ 0.054 1 2 cbr 500 ------- 2 1.0 2.0 53 68
- 0.054 1 2 cbr 500 ------- 2 1.0 2.0 53 68
+ 0.055 1 2 cbr 500 ------- 2 1.0 2.0 54 69
- 0.055 1 2 cbr 500 ------- 2 1.0 2.0 54 69
+ 0.056 1 2 cbr 500 ------- 2 1.0 2.0 55 70
- 0.056 1 2 cbr 500 ------- 2 1.0 2.0 55 70
+ 0.057 1 2 cbr 500 ------- 2 1.0 2.0 56 71
- 0.057 1 2 cbr 500 ------- 2 1.0 2.0 56 71
+ 0.05725 0 2 cbr 210 ------- 1 0.0 2.0 15 72
+ 0.058 1 2 cbr 500 ------- 2 1.0 2.0 57 73
- 0.058 1 2 cbr 500 ------- 2 1.0 2.0 57 73
+ 0.059 1 2 cbr 500 ------- 2 1.0 2.0 58 74
- 0.059 1 2 cbr 500 ------- 2 1.0 2.0 58 74
+ 0.06 1 2 cbr 500 ------- 2 1.0 2.0 59 75
- 0.06 1 2 cbr 500 ------- 2 1.0 2.0 59 75
+ 0.061 0 2 cbr 210 ------- 1 0.0 2.0 16 76
+ 0.061 1 2 cbr 500 ------- 2 1.0 2.0 60 77
- 0.061 1 2 cbr 500 ------- 2 1.0 2.0 60 77
+ 0.062 1 2 cbr 500 ------- 2 1.0 2.0 61 78
- 0.062 1 2 cbr 500 ------- 2 1.0 2.0 61 78
+ 0.063 1 2 cbr 500 ------- 2 1.0 2.0 62 79
- 0.063 1 2 cbr 500 ------- 2 1.0 2.0 62 79
+ 0.064 1 2 cbr 500 ------- 2 1.0 2.0 63 80
- 0.064 1 2 cbr 500 ------- 2 1.0 2.0 63 80
+ 0.06475 0 2 cbr 210 ------- 1 0.0 2.0 17 81
+ 0.065 1 2 cbr 500 ------- 2 1.0 2.0 64 82
- 0.065 1 2 cbr 500 ------- 2 1.0 2.0 64 82
+ 0.066 1 2 cbr 500 ------- 2 1.0 2.0 65 83
- 0.066 1 2 cbr 500 ------- 2 1.0 2.0 65 83
+ 0.067 1 2 cbr 500 ------- 2 1.0 2.0 66 84
- 0.067 1 2 cbr 500 ------- 2 1.0 2.0 66 84
+ 0.068 1 2 cbr 500 ------- 2 1.0 2.0 67 85
- 0.068 1 2 cbr 500 ------- 2 1.0 2.0 67 85
+ 0.0685 0 2 cbr 210 ------- 1 0.0 2.0 18 86
+ 0.069 1 2 cbr 500 ------- 2 1.0 2.0 68 87
- 0.069 1 2 cbr 500 ------- 2 1.0 2.0 68 87
+ 0.07 1 2 cbr 500 ------- 2 1.0 2.0 69 88
- 0.07 1 2 cbr 500 ------- 2 1.0 2.0 69 88
+ 0.071 1 2 cbr 500 ------- 2 1.0 2.0 70 89
- 0.071 1 2 cbr 500 ------- 2 1.0 2.0 70 89
+ 0.072 1 2 cbr 500 ------- 2 1.0 2.0 71 90
- 0.072 1 2 cbr 500 ------- 2 1.0 2.0 71 90
+ 0.07225 0 2 cbr 210 ------- 1 0.0 2.0 19 91
+ 0.073 1 2 cbr 500 ------- 2 1.0 2.0 72 92
- 0.073 1 2 cbr 500 ------- 2 1.0 2.0 72 92
+ 0.074 1 2 cbr 500 ------- 2 1.0 2.0 73 93
- 0.074 1 2 cbr 500 ------- 2 1.0 2.0 73 93
+ 0.075 1 2 cbr 500 ------- 2 1.0 2.0 74 94
- 0.075 1 2 cbr 500 ------- 2 1.0 2.0 74 94
+ 0.076 0 2 cbr 210 ------- 1 0.0 2.0 20 95
+ 0.076 1 2 cbr 500 ------- 2 1.0 2.0 75 96
- 0.076 1 2 cbr 500 ------- 2 1.0 2.0 75 96
+ 0.077 1 2 cbr 500 ------- 2 1.0 2.0 76 97
- 0.077 1 2 cbr 500 ------- 2 1.0 2.0 76 97
+ 0.078 1 2 cbr 500 ------- 2 1.0 2.0 77 98
- 0.078 1 2 cbr 500 ------- 2 1.0 2.0 77 98
+ 0.079 1 2 cbr 500 ------- 2 1.0 2.0 78 99
- 0.079 1 2 cbr 500 ------- 2 1.0 2.0 78 99
+ 0.07975 0 2 cbr 210 ------- 1 0.0 2.0 21 100
+ 0.08 1 2 cbr 500 ------- 2 1.0 2.0 79 101
- 0.08 1 2 cbr 500 ------- 2 1.0 2.0 79 101
+ 0.081 1 2 cbr 500 ------- 2 1.0 2.0 80 102
- 0.081 1 2 cbr 500 ------- 2 1.0 2.0 80 102
+ 0.082 1 2 cbr 500 ------- 2 1.0 2.0 81 103
- 0.082 1 2 cbr 500 ------- 2 1.0 2.0 81 103
+ 0.083 1 2 cbr 500 ------- 2 1.0 2.0 82 104
- 0.083 1 2 cbr 500 ------- 2 1.0 2.0 82 104
+ 0.0835 0 2 cbr 210 ------- 1 0.0 2.0 22 105
+ 0.084 1 2 cbr 500 ------- 2 1.0 2.0 83 106
- 0.084 1 2 cbr 500 ------- 2 1.0 2.0 83 106
+ 0.085 1 2 cbr 500 ------- 2 1.0 2.0 84 107
- 0.085 1 2 cbr 500 ------- 2 1.0 2.0 84 107
+ 0.086 1 2 cbr 500 ------- 2 1.0 2.0 85 108
- 0.086 1 2 cbr 500 ------- 2 1.0 2.0 85 108
+ 0.087 1 2 cbr 500 ------- 2 1.0 2.0 86 109
- 0.087 1 2 cbr 500 ------- 2 1.0 2.0 86 109
+ 0.08725 0 2 cbr 210 ------- 1 0.0 2.0 23 110
+ 0.088 1 2 cbr 500 ------- 2 1.0 2.0 87 111
- 0.088 1 2 cbr 500 ------- 2 1.0 2.0 87 111
+ 0.089 1 2 cbr 500 ------- 2 1.0 2.0 88 112
- 0.089 1 2 cbr 500 ------- 2 1.0 2.0 88 112
+ 0.09 1 2 cbr 500 ------- 2 1.0 2.0 89 113
- 0.09 1 2 cbr 500 ------- 2 1.0 2.0 89 113
+ 0.091 0 2 cbr 210 ------- 1 0.0 2.0 24 114
+ 0.091 1 2 cbr 500 ------- 2 1.0 2.0 90 115
- 0.091 1 2 cbr 500 ------- 2 1.0 2.0 90 115
+ 0.092 1 2 cbr 500 ------- 2 1.0 2.0 91 116
- 0.092 1 2 cbr 500 ------- 2 1.0 2.0 91 116
+ 0.093 1 2 cbr 500 ------- 2 1.0 2.0 92 117
- 0.093 1 2 cbr 500 ------- 2 1.0 2.0 92 117
+ 0.094 1 2 cbr 500 ------- 2 1.0 2.0 93 118
- 0.094 1 2 cbr 500 ------- 2 1.0 2.0 93 118
+ 0.09475 0 2 cbr 210 ------- 1 0.0 2.0 25 119
+ 0.095 1 2 cbr 500 ------- 2 1.0 2.0 94 120
- 0.095 1 2 cbr 500 ------- 2 1.0 2.0 94 120
+ 0.096 1 2 cbr 500 ------- 2 1.0 2.0 95 121
- 0.096 1 2 cbr 500 ------- 2 1.0 2.0 95 121
+ 0.097 1 2 cbr 500 ------- 2 1.0 2.0 96 122
- 0.097 1 2 cbr 500 ------- 2 1.0 2.0 96 122
+ 0.098 1 2 cbr 500 ------- 2 1.0 2.0 97 123
- 0.098 1 2 cbr 500 ------- 2 1.0 2.0 97 123
+ 0.0985 0 2 cbr 210 ------- 1 0.0 2.0 26 124
+ 0.099 1 2 cbr 500 ------- 2 1.0 2.0 98 125
- 0.099 1 2 cbr 500 ------- 2 1.0 2.0 98 125
+ 0.1 1 2 cbr 500 ------- 2 1.0 2.0 99 126
- 0.1 1 2 cbr 500 ------- 2 1.0 2.0 99 126
+ 0.101 1 2 cbr 500 ------- 2 1.0 2.0 100 127
- 0.101 1 2 cbr 500 ------- 2 1.0 2.0 100 127
+ 0.102 1 2 cbr 500 ------- 2 1.0 2.0 101 128
- 0.102 1 2 cbr 500 ------- 2 1.0 2.0 101 128
+ 0.10225 0 2 cbr 210 ------- 1 0.0 2.0 27 129
+ 0.103 1 2 cbr 500 ------- 2 1.0 2.0 102 130
- 0.103 1 2 cbr 500 ------- 2 1.0 2.0 102 130
+ 0.104 1 2 cbr 500 ------- 2 1.0 2.0 103 131
- 0.104 1 2 cbr 500 ------- 2 1.0 2.0 103 131
+ 0.105 1 2 cbr 500 ------- 2 1.0 2.0 104 132
- 0.105 1 2 cbr 500 ------- 2 1.0 2.0 104 132
+ 0.106 0 2 cbr 210 ------- 1 0.0 2.0 28 133
+ 0.106 1 2 cbr 500 ------- 2 1.0 2.0 105 134
- 0.106 1 2 cbr 500 ------- 2 1.0 2.0 105 134
+ 0.107 1 2 cbr 500 ------- 2 1.0 2.0 106 135
- 0.107 1 2 cbr 500 ------- 2 1.0 2.0 106 135
+ 0.108 1 2 cbr 500 ------- 2 1.0 2.0 107 136
- 0.108 1 2 cbr 500 ------- 2 1.0 2.0 107 136
+ 0.109 1 2 cbr 500 ------- 2 1.0 2.0 108 137
- 0.109 1 2 cbr 500 ------- 2 1.0 2.0 108 137
+ 0.10975 0 2 cbr 210 ------- 1 0.0 2.0 29 138
+ 0.11 1 2 cbr 500 ------- 2 1.0 2.0 109 139
- 0.11 1 2 cbr 500 ------- 2 1.0 2.0 109 139
+ 0.111 1 2 cbr 500 ------- 2 1.0 2.0 110 140
- 0.111 1 2 cbr 500 ------- 2 1.0 2.0 110 140
+ 0.112 1 2 cbr 500 ------- 2 1.0 2.0 111 141
- 0.112 1 2 cbr 500 ------- 2 1.0 2.0 111 141
+ 0.113 1 2 cbr 500 ------- 2 1.0 2.0 112 142
- 0.113 1 2 cbr 500 ------- 2 1.0 2.0 112 142
+ 0.1135 0 2 cbr 210 ------- 1 0.0 2.0 30 143
+ 0.114 1 2 cbr 500 ------- 2 1.0 2.0 113 144
- 0.114 1 2 cbr 500 ------- 2 1.0 2.0 113 144
+ 0.115 1 2 cbr 500 ------- 2 1.0 2.0 114 145
- 0.115 1 2 cbr 500 ------- 2 1.0 2.0 114 145
+ 0.116 1 2 cbr 500 ------- 2 1.0 2.0 115 146
- 0.116 1 2 cbr 500 ------- 2 1.0 2.0 115 146
+ 0.117 1 2 cbr 500 ------- 2 1.0 2.0 116 147
- 0.117 1 2 cbr 500 ------- 2 1.0 2.0 116 147
+ 0.11725 0 2 cbr 210 ------- 1 0.0 2.0 31 148
+ 0.118 1 2 cbr 500 ------- 2 1.0 2.0 117 149
- 0.118 1 2 cbr 500 ------- 2 1.0 2.0 117 149
+ 0.119 1 2 cbr 500 ------- 2 1.0 2.0 118 150
- 0.119 1 2 cbr 500 ------- 2 1.0 2.0 118 150
+ 0.12 1 2 cbr 500 ------- 2 1.0 2.0 119 151
- 0.12 1 2 cbr 500 ------- 2 1.0 2.0 119 151
+ 0.121 0 2 cbr 210 ------- 1 0.0 2.0 32 152
+ 0.121 1 2 cbr 500 ------- 2 1.0 2.0 120 153
- 0.121 1 2 cbr 500 ------- 2 1.0 2.0 120 153
+ 0.122 1 2 cbr 500 ------- 2 1.0 2.0 121 154
- 0.122 1 2 cbr 500 ------- 2 1.0 2.0 121 154
+ 0.123 1 2 cbr 500 ------- 2 1.0 2.0 122 155
- 0.123 1 2 cbr 500 ------- 2 1.0 2.0 122 155
+ 0.124 1 2 cbr 500 ------- 2 1.0 2.0 123 156
- 0.124 1 2 cbr 500 ------- 2 1.0 2.0 123 156
+ 0.12475 0 2 cbr 210 ------- 1 0.0 2.0 33 157
+ 0.125 1 2 cbr 500 ------- 2 1.0 2.0 124 158
- 0.125 1 2 cbr 500 ------- 2 1.0 2.0 124 158
+ 0.126 1 2 cbr 500 ------- 2 1.0 2.0 125 159
- 0.126 1 2 cbr 500 ------- 2 1.0 2.0 125 159
+ 0.127 1 2 cbr 500 ------- 2 1.0 2.0 126 160
- 0.127 1 2 cbr 500 ------- 2 1.0 2.0 126 160
+ 0.128 1 2 cbr 500 ------- 2 1.0 2.0 127 161
- 0.128 1 2 cbr 500 ------- 2 1.0 2.0 127 161
+ 0.1285 0 2 cbr 210 ------- 1 0.0 2.0 34 162
+ 0.129 1 2 cbr 500 ------- 2 1.0 2.0 128 163
- 0.129 1 2 cbr 500 ------- 2 1.0 2.0 128 163
+ 0.13 1 2 cbr 500 ------- 2 1.0 2.0 129 164
- 0.13 1 2 cbr 500 ------- 2 1.0 2.0 129 164
+ 0.131 1 2 cbr 500 ------- 2 1.0 2.0 130 165
- 0.131 1 2 cbr 500 ------- 2 1.0 2.0 130 165
+ 0.132 1 2 cbr 500 ------- 2 1.0 2.0 131 166
- 0.132 1 2 cbr 500 ------- 2 1.0 2.0 131 166
+ 0.13225 0 2 cbr 210 ------- 1 0.0 2.0 35 167
+ 0.133 1 2 cbr 500 ------- 2 1.0 2.0 132 168
- 0.133 1 2 cbr 500 ------- 2 1.0 2.0 132 168
+ 0.134 1 2 cbr 500 ------- 2 1.0 2.0 133 169
- 0.134 1 2 cbr 500 ------- 2 1.0 2.0 133 169
+ 0.135 1 2 cbr 500 ------- 2 1.0 2.0 134 170
- 0.135 1 2 cbr 500 ------- 2 1.0 2.0 134 170
+ 0.136 0 2 cbr 210 ------- 1 0.0 2.0 36 171
+ 0.136 1 2 cbr 500 ------- 2 1.0 2.0 135 172
- 0.136 1 2 cbr 500 ------- 2 1.0 2.0 135 172
+ 0.137 1 2 cbr 500 ------- 2 1.0 2.0 136 173
- 0.137 1 2 cbr 500 ------- 2 1.0 2.0 136 173
+ 0.138 1 2 cbr 500 ------- 2 1.0 2.0 137 174
- 0.138 1 2 cbr 500 ------- 2 1.0 2.0 137 174
+ 0.139 1 2 cbr 500 ------- 2 1.0 2.0 138 175
- 0.139 1 2 cbr 500 ------- 2 1.0 2.0 138 175
+ 0.13975 0 2 cbr 210 ------- 1 0.0 2.0 37 176
+ 0.14 1 2 cbr 500 ------- 2 1.0 2.0 139 177
- 0.14 1 2 cbr 500 ------- 2 1.0 2.0 139 177
+ 0.141 1 2 cbr 500 ------- 2 1.0 2.0 140 178
- 0.141 1 2 cbr 500 ------- 2 1.0 2.0 140 178
+ 0.142 1 2 cbr 500 ------- 2 1.0 2.0 141 179
- 0.142 1 2 cbr 500 ------- 2 1.0 2.0 141 179
+ 0.143 1 2 cbr 500 ------- 2 1.0 2.0 142 180
- 0.143 1 2 cbr 500 ------- 2 1.0 2.0 142 180
+ 0.1435 0 2 cbr 210 ------- 1 0.0 2.0 38 181
+ 0.144 1 2 cbr 500 ------- 2 1.0 2.0 143 182
- 0.144 1 2 cbr 500 ------- 2 1.0 2.0 143 182
+ 0.145 1 2 cbr 500 ------- 2 1.0 2.0 144 183
- 0.145 1 2 cbr 500 ------- 2 1.0 2.0 144 183
+ 0.146 1 2 cbr 500 ------- 2 1.0 2.0 145 184
- 0.146 1 2 cbr 500 ------- 2 1.0 2.0 145 184
+ 0.147 1 2 cbr 500 ------- 2 1.0 2.0 146 185
- 0.147 1 2 cbr 500 ------- 2 1.0 2.0 146 185
+ 0.14725 0 2 cbr 210 ------- 1 0.0 2.0 39 186
+ 0.148 1 2 cbr 500 ------- 2 1.0 2.0 147 187
- 0.148 1 2 cbr 500 ------- 2 1.0 2.0 147 187
+ 0.149 1 2 cbr 500 ------- 2 1.0 2.0 148 188
- 0.149 1 2 cbr 500 ------- 2 1.0 2.0 148 188
+ 0.15 1 2 cbr 500 ------- 2 1.0 2.0 149 189
- 0.15 1 2 cbr 500 ------- 2 1.0 2.0 149 189
+ 0.151 0 2 cbr 210 ------- 1 0.0 2.0 40 190
+ 0.151 1 2 cbr 500 ------- 2 1.0 2.0 150 191
- 0.151 1 2 cbr 500 ------- 2 1.0 2.0 150 191
+ 0.152 1 2 cbr 500 ------- 2 1.0 2.0 151 192
- 0.152 1 2 cbr 500 ------- 2 1.0 2.0 151 192
+ 0.153 1 2 cbr 500 ------- 2 1.0 2.0 152 193
- 0.153 1 2 cbr 500 ------- 2 1.0 2.0 152 193
+ 0.154 1 2 cbr 500 ------- 2 1.0 2.0 153 194
- 0.154 1 2 cbr 500 ------- 2 1.0 2.0 153 194
+ 0.15475 0 2 cbr 210 ------- 1 0.0 2.0 41 195
+ 0.155 1 2 cbr 500 ------- 2 1.0 2.0 154 196
- 0.155 1 2 cbr 500 ------- 2 1.0 2.0 154 196
+ 0.156 1 2 cbr 500 ------- 2 1.0 2.0 155 197
- 0.156 1 2 cbr 500 ------- 2 1.0 2.0 155 197
+ 0.157 1 2 cbr 500 ------- 2 1.0 2.0 156 198
- 0.157 1 2 cbr 500 ------- 2 1.0 2.0 156 198
+ 0.158 1 2 cbr 500 ------- 2 1.0 2.0 157 199
- 0.158 1 2 cbr 500 ------- 2 1.0 2.0 157 199
+ 0.1585 0 2 cbr 210 ------- 1 0.0 2.0 42 200
+ 0.159 1 2 cbr 500 ------- 2 1.0 2.0 158 201
- 0.159 1 2 cbr 500 ------- 2 1.0 2.0 158 201
+ 0.16 1 2 cbr 500 ------- 2 1.0 2.0 159 202
- 0.16 1 2 cbr 500 ------- 2 1.0 2.0 159 202
+ 0.161 1 2 cbr 500 ------- 2 1.0 2.0 160 203
- 0.161 1 2 cbr 500 ------- 2 1.0 2.0 160 203
+ 0.162 1 2 cbr 500 ------- 2 1.0 2.0 161 204
- 0.162 1 2 cbr 500 ------- 2 1.0 2.0 161 204
+ 0.16225 0 2 cbr 210 ------- 1 0.0 2.0 43 205
+ 0.163 1 2 cbr 500 ------- 2 1.0 2.0 162 206
- 0.163 1 2 cbr 500 ------- 2 1.0 2.0 162 206
+ 0.164 1 2 cbr 500 ------- 2 1.0 2.0 163 207
- 0.164 1 2 cbr 500 ------- 2 1.0 2.0 163 207
+ 0.165 1 2 cbr 500 ------- 2 1.0 2.0 164 208
- 0.165 1 2 cbr 500 ------- 2 1.0 2.0 164 208
+ 0.166 0 2 cbr 210 ------- 1 0.0 2.0 44 209
+ 0.166 1 2 cbr 500 ------- 2 1.0 2.0 165 210
- 0.166 1 2 cbr 500 ------- 2 1.0 2.0 165 210
+ 0.167 1 2 cbr 500 ------- 2 1.0 2.0 166 211
- 0.167 1 2 cbr 500 ------- 2 1.0 2.0 166 211
+ 0.168 1 2 cbr 500 ------- 2 1.0 2.0 167 212
- 0.168 1 2 cbr 500 ------- 2 1.0 2.0 167 212
- 0.169 0 2 cbr 210 ------- 1 0.0 2.0 1 5
+ 0.169 1 2 cbr 500 ------- 2 1.0 2.0 168 213
- 0.169 1 2 cbr 500 ------- 2 1.0 2.0 168 213
+ 0.16975 0 2 cbr 210 ------- 1 0.0 2.0 45 214
+ 0.17 1 2 cbr 500 ------- 2 1.0 2.0 169 215
- 0.17 1 2 cbr 500 ------- 2 1.0 2.0 169 215
+ 0.171 1 2 cbr 500 ------- 2 1.0 2.0 170 216
- 0.171 1 2 cbr 500 ------- 2 1.0 2.0 170 216
+ 0.172 1 2 cbr 500 ------- 2 1.0 2.0 171 217
- 0.172 1 2 cbr 500 ------- 2 1.0 2.0 171 217
+ 0.173 1 2 cbr 500 ------- 2 1.0 2.0 172 218
- 0.173 1 2 cbr 500 ------- 2 1.0 2.0 172 218
+ 0.1735 0 2 cbr 210 ------- 1 0.0 2.0 46 219
+ 0.174 1 2 cbr 500 ------- 2 1.0 2.0 173 220
- 0.174 1 2 cbr 500 ------- 2 1.0 2.0 173 220
+ 0.175 1 2 cbr 500 ------- 2 1.0 2.0 174 221
- 0.175 1 2 cbr 500 ------- 2 1.0 2.0 174 221
+ 0.176 1 2 cbr 500 ------- 2 1.0 2.0 175 222
- 0.176 1 2 cbr 500 ------- 2 1.0 2.0 175 222
+ 0.177 1 2 cbr 500 ------- 2 1.0 2.0 176 223
- 0.177 1 2 cbr 500 ------- 2 1.0 2.0 176 223
+ 0.17725 0 2 cbr 210 ------- 1 0.0 2.0 47 224
+ 0.178 1 2 cbr 500 ------- 2 1.0 2.0 177 225
- 0.178 1 2 cbr 500 ------- 2 1.0 2.0 177 225
+ 0.179 1 2 cbr 500 ------- 2 1.0 2.0 178 226
- 0.179 1 2 cbr 500 ------- 2 1.0 2.0 178 226
+ 0.18 1 2 cbr 500 ------- 2 1.0 2.0 179 227
- 0.18 1 2 cbr 500 ------- 2 1.0 2.0 179 227
+ 0.181 0 2 cbr 210 ------- 1 0.0 2.0 48 228
+ 0.181 1 2 cbr 500 ------- 2 1.0 2.0 180 229
- 0.181 1 2 cbr 500 ------- 2 1.0 2.0 180 229
+ 0.182 1 2 cbr 500 ------- 2 1.0 2.0 181 230
- 0.182 1 2 cbr 500 ------- 2 1.0 2.0 181 230
+ 0.183 1 2 cbr 500 ------- 2 1.0 2.0 182 231
- 0.183 1 2 cbr 500 ------- 2 1.0 2.0 182 231
+ 0.184 1 2 cbr 500 ------- 2 1.0 2.0 183 232
- 0.184 1 2 cbr 500 ------- 2 1.0 2.0 183 232
+ 0.18475 0 2 cbr 210 ------- 1 0.0 2.0 49 233
+ 0.185 1 2 cbr 500 ------- 2 1.0 2.0 184 234
- 0.185 1 2 cbr 500 ------- 2 1.0 2.0 184 234
+ 0.186 1 2 cbr 500 ------- 2 1.0 2.0 185 235
- 0.186 1 2 cbr 500 ------- 2 1.0 2.0 185 235
+ 0.187 1 2 cbr 500 ------- 2 1.0 2.0 186 236
- 0.187 1 2 cbr 500 ------- 2 1.0 2.0 186 236
+ 0.188 1 2 cbr 500 ------- 2 1.0 2.0 187 237
- 0.188 1 2 cbr 500 ------- 2 1.0 2.0 187 237
+ 0.1885 0 2 cbr 210 ------- 1 0.0 2.0 50 238
+ 0.189 1 2 cbr 500 ------- 2 1.0 2.0 188 239
- 0.189 1 2 cbr 500 ------- 2 1.0 2.0 188 239
+ 0.19 1 2 cbr 500 ------- 2 1.0 2.0 189 240
- 0.19 1 2 cbr 500 ------- 2 1.0 2.0 189 240
+ 0.191 1 2 cbr 500 ------- 2 1.0 2.0 190 241
- 0.191 1 2 cbr 500 ------- 2 1.0 2.0 190 241
+ 0.192 1 2 cbr 500 ------- 2 1.0 2.0 191 242
- 0.192 1 2 cbr 500 ------- 2 1.0 2.0 191 242
+ 0.19225 0 2 cbr 210 ------- 1 0.0 2.0 51 243
d 0.19225 0 2 cbr 210 ------- 1 0.0 2.0 51 243
+ 0.193 1 2 cbr 500 ------- 2 1.0 2.0 192 244
- 0.193 1 2 cbr 500 ------- 2 1.0 2.0 192 244
+ 0.194 1 2 cbr 500 ------- 2 1.0 2.0 193 245
- 0.194 1 2 cbr 500 ------- 2 1.0 2.0 193 245
+ 0.195 1 2 cbr 500 ------- 2 1.0 2.0 194 246
- 0.195 1 2 cbr 500 ------- 2 1.0 2.0 194 246
+ 0.196 0 2 cbr 210 ------- 1 0.0 2.0 52 247
d 0.196 0 2 cbr 210 ------- 1 0.0 2.0 52 247
+ 0.196 1 2 cbr 500 ------- 2 1.0 2.0 195 248
- 0.196 1 2 cbr 500 ------- 2 1.0 2.0 195 248
+ 0.197 1 2 cbr 500 ------- 2 1.0 2.0 196 249
- 0.197 1 2 cbr 500 ------- 2 1.0 2.0 196 249
+ 0.198 1 2 cbr 500 ------- 2 1.0 2.0 197 250
- 0.198 1 2 cbr 500 ------- 2 1.0 2.0 197 250
+ 0.199 1 2 cbr 500 ------- 2 1.0 2.0 198 251
- 0.199 1 2 cbr 500 ------- 2 1.0 2.0 198 251
+ 0.19975 0 2 cbr 210 ------- 1 0.0 2.0 53 252
d 0.19975 0 2 cbr 210 ------- 1 0.0 2.0 53 252
+ 0.2 1 2 cbr 500 ------- 2 1.0 2.0 199 253
- 0.2 1 2 cbr 500 ------- 2 1.0 2.0 199 253
+ 0.201 1 2 cbr 500 ------- 2 1.0 2.0 200 254
- 0.201 1 2 cbr 500 ------- 2 1.0 2.0 200 254
r 0.2018 1 2 cbr 500 ------- 2 1.0 2.0 0 1
+ 0.202 1 2 cbr 500 ------- 2 1.0 2.0 201 255
- 0.202 1 2 cbr 500 ------- 2 1.0 2.0 201 255
r 0.2028 1 2 cbr 500 ------- 2 1.0 2.0 1 2
+ 0.203 1 2 cbr 500 ------- 2 1.0 2.0 202 256
- 0.203 1 2 cbr 500 ------- 2 1.0 2.0 202 256
+ 0.2035 0 2 cbr 210 ------- 1 0.0 2.0 54 257
d 0.2035 0 2 cbr 210 ------- 1 0.0 2.0 54 257
r 0.2038 1 2 cbr 500 ------- 2 1.0 2.0 2 3
+ 0.204 1 2 cbr 500 ------- 2 1.0 2.0 203 258
- 0.204 1 2 cbr 500 ------- 2 1.0 2.0 203 258
r 0.2048 1 2 cbr 500 ------- 2 1.0 2.0 3 4
+ 0.205 1 2 cbr 500 ------- 2 1.0 2.0 204 259
- 0.205 1 2 cbr 500 ------- 2 1.0 2.0 204 259
r 0.2058 1 2 cbr 500 ------- 2 1.0 2.0 4 6
+ 0.206 1 2 cbr 500 ------- 2 1.0 2.0 205 260
- 0.206 1 2 cbr 500 ------- 2 1.0 2.0 205 260
r 0.2068 1 2 cbr 500 ------- 2 1.0 2.0 5 7
+ 0.207 1 2 cbr 500 ------- 2 1.0 2.0 206 261
- 0.207 1 2 cbr 500 ------- 2 1.0 2.0 206 261
+ 0.20725 0 2 cbr 210 ------- 1 0.0 2.0 55 262
d 0.20725 0 2 cbr 210 ------- 1 0.0 2.0 55 262
r 0.2078 1 2 cbr 500 ------- 2 1.0 2.0 6 8
+ 0.208 1 2 cbr 500 ------- 2 1.0 2.0 207 263
- 0.208 1 2 cbr 500 ------- 2 1.0 2.0 207 263
r 0.2088 1 2 cbr 500 ------- 2 1.0 2.0 7 9
+ 0.209 1 2 cbr 500 ------- 2 1.0 2.0 208 264
- 0.209 1 2 cbr 500 ------- 2 1.0 2.0 208 264
r 0.2098 1 2 cbr 500 ------- 2 1.0 2.0 8 11
+ 0.21 1 2 cbr 500 ------- 2 1.0 2.0 209 265
- 0.21 1 2 cbr 500 ------- 2 1.0 2.0 209 265
r 0.2108 1 2 cbr 500 ------- 2 1.0 2.0 9 12
+ 0.211 0 2 cbr 210 ------- 1 0.0 2.0 56 266
d 0.211 0 2 cbr 210 ------- 1 0.0 2.0 56 266
+ 0.211 1 2 cbr 500 ------- 2 1.0 2.0 210 267
- 0.211 1 2 cbr 500 ------- 2 1.0 2.0 210 267
r 0.2118 1 2 cbr 500 ------- 2 1.0 2.0 10 13
+ 0.212 1 2 cbr 500 ------- 2 1.0 2.0 211 268
- 0.212 1 2 cbr 500 ------- 2 1.0 2.0 211 268
r 0.2128 1 2 cbr 500 ------- 2 1.0 2.0 11 14
+ 0.213 1 2 cbr 500 ------- 2 1.0 2.0 212 269
- 0.213 1 2 cbr 500 ------- 2 1.0 2.0 212 269
r 0.2138 1 2 cbr 500 ------- 2 1.0 2.0 12 16
+ 0.214 1 2 cbr 500 ------- 2 1.0 2.0 213 270
- 0.214 1 2 cbr 500 ------- 2 1.0 2.0 213 270
+ 0.21475 0 2 cbr 210 ------- 1 0.0 2.0 57 271
d 0.21475 0 2 cbr 210 ------- 1 0.0 2.0 57 271
r 0.2148 1 2 cbr 500 ------- 2 1.0 2.0 13 17
+ 0.215 1 2 cbr 500 ------- 2 1.0 2.0 214 272
- 0.215 1 2 cbr 500 ------- 2 1.0 2.0 214 272
r 0.2158 1 2 cbr 500 ------- 2 1.0 2.0 14 18
+ 0.216 1 2 cbr 500 ------- 2 1.0 2.0 215 273
- 0.216 1 2 cbr 500 ------- 2 1.0 2.0 215 273
r 0.2168 1 2 cbr 500 ------- 2 1.0 2.0 15 20
+ 0.217 1 2 cbr 500 ------- 2 1.0 2.0 216 274
- 0.217 1 2 cbr 500 ------- 2 1.0 2.0 216 274
r 0.2178 1 2 cbr 500 ------- 2 1.0 2.0 16 21
+ 0.218 1 2 cbr 500 ------- 2 1.0 2.0 217 275
- 0.218 1 2 cbr 500 ------- 2 1.0 2.0 217 275
+ 0.2185 0 2 cbr 210 ------- 1 0.0 2.0 58 276
d 0.2185 0 2 cbr 210 ------- 1 0.0 2.0 58 276
r 0.2188 1 2 cbr 500 ------- 2 1.0 2.0 17 22
+ 0.219 1 2 cbr 500 ------- 2 1.0 2.0 218 277
- 0.219 1 2 cbr 500 ------- 2 1.0 2.0 218 277
r 0.2198 1 2 cbr 500 ------- 2 1.0 2.0 18 23
+ 0.22 1 2 cbr 500 ------- 2 1.0 2.0 219 278
- 0.22 1 2 cbr 500 ------- 2 1.0 2.0 219 278
r 0.2208 1 2 cbr 500 ------- 2 1.0 2.0 19 25
+ 0.221 1 2 cbr 500 ------- 2 1.0 2.0 220 279
- 0.221 1 2 cbr 500 ------- 2 1.0 2.0 220 279
r 0.2218 1 2 cbr 500 ------- 2 1.0 2.0 20 26
+ 0.222 1 2 cbr 500 ------- 2 1.0 2.0 221 280
- 0.222 1 2 cbr 500 ------- 2 1.0 2.0 221 280
+ 0.22225 0 2 cbr 210 ------- 1 0.0 2.0 59 281
d 0.22225 0 2 cbr 210 ------- 1 0.0 2.0 59 281
r 0.2228 1 2 cbr 500 ------- 2 1.0 2.0 21 27
+ 0.223 1 2 cbr 500 ------- 2 1.0 2.0 222 282
- 0.223 1 2 cbr 500 ------- 2 1.0 2.0 222 282
r 0.2238 1 2 cbr 500 ------- 2 1.0 2.0 22 28
+ 0.224 1 2 cbr 500 ------- 2 1.0 2.0 223 283
- 0.224 1 2 cbr 500 ------- 2 1.0 2.0 223 283
r 0.2248 1 2 cbr 500 ------- 2 1.0 2.0 23 30
+ 0.225 1 2 cbr 500 ------- 2 1.0 2.0 224 284
- 0.225 1 2 cbr 500 ------- 2 1.0 2.0 224 284
r 0.2258 1 2 cbr 500 ------- 2 1.0 2.0 24 31
+ 0.226 0 2 cbr 210 ------- 1 0.0 2.0 60 285
d 0.226 0 2 cbr 210 ------- 1 0.0 2.0 60 285
+ 0.226 1 2 cbr 500 ------- 2 1.0 2.0 225 286
- 0.226 1 2 cbr 500 ------- 2 1.0 2.0 225 286
r 0.2268 1 2 cbr 500 ------- 2 1.0 2.0 25 32
+ 0.227 1 2 cbr 500 ------- 2 1.0 2.0 226 287
- 0.227 1 2 cbr 500 ------- 2 1.0 2.0 226 287
r 0.2278 1 2 cbr 500 ------- 2 1.0 2.0 26 33
+ 0.228 1 2 cbr 500 ------- 2 1.0 2.0 227 288
- 0.228 1 2 cbr 500 ------- 2 1.0 2.0 227 288
r 0.2288 1 2 cbr 500 ------- 2 1.0 2.0 27 35
+ 0.229 1 2 cbr 500 ------- 2 1.0 2.0 228 289
- 0.229 1 2 cbr 500 ------- 2 1.0 2.0 228 289
+ 0.22975 0 2 cbr 210 ------- 1 0.0 2.0 61 290
d 0.22975 0 2 cbr 210 ------- 1 0.0 2.0 61 290
r 0.2298 1 2 cbr 500 ------- 2 1.0 2.0 28 36
+ 0.23 1 2 cbr 500 ------- 2 1.0 2.0 229 291
- 0.23 1 2 cbr 500 ------- 2 1.0 2.0 229 291
r 0.2308 1 2 cbr 500 ------- 2 1.0 2.0 29 37
+ 0.231 1 2 cbr 500 ------- 2 1.0 2.0 230 292
- 0.231 1 2 cbr 500 ------- 2 1.0 2.0 230 292
r 0.2318 1 2 cbr 500 ------- 2 1.0 2.0 30 39
+ 0.232 1 2 cbr 500 ------- 2 1.0 2.0 231 293
- 0.232 1 2 cbr 500 ------- 2 1.0 2.0 231 293
r 0.2328 1 2 cbr 500 ------- 2 1.0 2.0 31 40
+ 0.233 1 2 cbr 500 ------- 2 1.0 2.0 232 294
- 0.233 1 2 cbr 500 ------- 2 1.0 2.0 232 294
+ 0.2335 0 2 cbr 210 ------- 1 0.0 2.0 62 295
d 0.2335 0 2 cbr 210 ------- 1 0.0 2.0 62 295
r 0.2338 1 2 cbr 500 ------- 2 1.0 2.0 32 41
+ 0.234 1 2 cbr 500 ------- 2 1.0 2.0 233 296
- 0.234 1 2 cbr 500 ------- 2 1.0 2.0 233 296
r 0.2348 1 2 cbr 500 ------- 2 1.0 2.0 33 42
+ 0.235 1 2 cbr 500 ------- 2 1.0 2.0 234 297
- 0.235 1 2 cbr 500 ------- 2 1.0 2.0 234 297
r 0.2358 1 2 cbr 500 ------- 2 1.0 2.0 34 44
+ 0.236 1 2 cbr 500 ------- 2 1.0 2.0 235 298
- 0.236 1 2 cbr 500 ------- 2 1.0 2.0 235 298
r 0.2368 1 2 cbr 500 ------- 2 1.0 2.0 35 45
+ 0.237 1 2 cbr 500 ------- 2 1.0 2.0 236 299
- 0.237 1 2 cbr 500 ------- 2 1.0 2.0 236 299
+ 0.23725 0 2 cbr 210 ------- 1 0.0 2.0 63 300
d 0.23725 0 2 cbr 210 ------- 1 0.0 2.0 63 300
r 0.2378 1 2 cbr 500 ------- 2 1.0 2.0 36 46
+ 0.238 1 2 cbr 500 ------- 2 1.0 2.0 237 301
- 0.238 1 2 cbr 500 ------- 2 1.0 2.0 237 301
r 0.2388 1 2 cbr 500 ------- 2 1.0 2.0 37 47
+ 0.239 1 2 cbr 500 ------- 2 1.0 2.0 238 302
- 0.239 1 2 cbr 500 ------- 2 1.0 2.0 238 302
r 0.2398 1 2 cbr 500 ------- 2 1.0 2.0 38 49
+ 0.24 1 2 cbr 500 ------- 2 1.0 2.0 239 303
- 0.24 1 2 cbr 500 ------- 2 1.0 2.0 239 303
r 0.2408 1 2 cbr 500 ------- 2 1.0 2.0 39 50
+ 0.241 0 2 cbr 210 ------- 1 0.0 2.0 64 304
d 0.241 0 2 cbr 210 ------- 1 0.0 2.0 64 304
+ 0.241 1 2 cbr 500 ------- 2 1.0 2.0 240 305
- 0.241 1 2 cbr 500 ------- 2 1.0 2.0 240 305
r 0.2418 1 2 cbr 500 ------- 2 1.0 2.0 40 51
+ 0.242 1 2 cbr 500 ------- 2 1.0 2.0 241 306
- 0.242 1 2 cbr 500 ------- 2 1.0 2.0 241 306
r 0.2428 1 2 cbr 500 ------- 2 1.0 2.0 41 52
+ 0.243 1 2 cbr 500 ------- 2 1.0 2.0 242 307
- 0.243 1 2 cbr 500 ------- 2 1.0 2.0 242 307
r 0.2438 1 2 cbr 500 ------- 2 1.0 2.0 42 54
+ 0.244 1 2 cbr 500 ------- 2 1.0 2.0 243 308
- 0.244 1 2 cbr 500 ------- 2 1.0 2.0 243 308
+ 0.24475 0 2 cbr 210 ------- 1 0.0 2.0 65 309
d 0.24475 0 2 cbr 210 ------- 1 0.0 2.0 65 309
r 0.2448 1 2 cbr 500 ------- 2 1.0 2.0 43 55
+ 0.245 1 2 cbr 500 ------- 2 1.0 2.0 244 310
- 0.245 1 2 cbr 500 ------- 2 1.0 2.0 244 310
r 0.2458 1 2 cbr 500 ------- 2 1.0 2.0 44 56
+ 0.246 1 2 cbr 500 ------- 2 1.0 2.0 245 311
- 0.246 1 2 cbr 500 ------- 2 1.0 2.0 245 311
r 0.2468 1 2 cbr 500 ------- 2 1.0 2.0 45 58
+ 0.247 1 2 cbr 500 ------- 2 1.0 2.0 246 312
- 0.247 1 2 cbr 500 ------- 2 1.0 2.0 246 312
r 0.2478 1 2 cbr 500 ------- 2 1.0 2.0 46 59
+ 0.248 1 2 cbr 500 ------- 2 1.0 2.0 247 313
- 0.248 1 2 cbr 500 ------- 2 1.0 2.0 247 313
+ 0.2485 0 2 cbr 210 ------- 1 0.0 2.0 66 314
d 0.2485 0 2 cbr 210 ------- 1 0.0 2.0 66 314
r 0.2488 1 2 cbr 500 ------- 2 1.0 2.0 47 60
+ 0.249 1 2 cbr 500 ------- 2 1.0 2.0 248 315
- 0.249 1 2 cbr 500 ------- 2 1.0 2.0 248 315
r 0.2498 1 2 cbr 500 ------- 2 1.0 2.0 48 61
+ 0.25 1 2 cbr 500 ------- 2 1.0 2.0 249 316
- 0.25 1 2 cbr 500 ------- 2 1.0 2.0 249 316
r 0.2508 1 2 cbr 500 ------- 2 1.0 2.0 49 63
+ 0.251 1 2 cbr 500 ------- 2 1.0 2.0 250 317
- 0.251 1 2 cbr 500 ------- 2 1.0 2.0 250 317
r 0.2518 1 2 cbr 500 ------- 2 1.0 2.0 50 64
+ 0.252 1 2 cbr 500 ------- 2 1.0 2.0 251 318
- 0.252 1 2 cbr 500 ------- 2 1.0 2.0 251 318
+ 0.25225 0 2 cbr 210 ------- 1 0.0 2.0 67 319
d 0.25225 0 2 cbr 210 ------- 1 0.0 2.0 67 319
r 0.2528 1 2 cbr 500 ------- 2 1.0 2.0 51 65
+ 0.253 1 2 cbr 500 ------- 2 1.0 2.0 252 320
- 0.253 1 2 cbr 500 ------- 2 1.0 2.0 252 320
r 0.2538 1 2 cbr 500 ------- 2 1.0 2.0 52 66
+ 0.254 1 2 cbr 500 ------- 2 1.0 2.0 253 321
- 0.254 1 2 cbr 500 ------- 2 1.0 2.0 253 321
r 0.2548 1 2 cbr 500 ------- 2 1.0 2.0 53 68
+ 0.255 1 2 cbr 500 ------- 2 1.0 2.0 254 322
- 0.255 1 2 cbr 500 ------- 2 1.0 2.0 254 322
r 0.2558 1 2 cbr 500 ------- 2 1.0 2.0 54 69
+ 0.256 0 2 cbr 210 ------- 1 0.0 2.0 68 323
d 0.256 0 2 cbr 210 ------- 1 0.0 2.0 68 323
+ 0.256 1 2 cbr 500 ------- 2 1.0 2.0 255 324
- 0.256 1 2 cbr 500 ------- 2 1.0 2.0 255 324
r 0.2568 1 2 cbr 500 ------- 2 1.0 2.0 55 70
+ 0.257 1 2 cbr 500 ------- 2 1.0 2.0 256 325
- 0.257 1 2 cbr 500 ------- 2 1.0 2.0 256 325
r 0.2578 1 2 cbr 500 ------- 2 1.0 2.0 56 71
+ 0.258 1 2 cbr 500 ------- 2 1.0 2.0 257 326
- 0.258 1 2 cbr 500 ------- 2 1.0 2.0 257 326
r 0.2588 1 2 cbr 500 ------- 2 1.0 2.0 57 73
+ 0.259 1 2 cbr 500 ------- 2 1.0 2.0 258 327